date Wed Oct 22 08:04:06 PM CEST 2025
master hostname valdubon
master system Linux valdubon 6.4.0-150600.23.70-default #1 SMP PREEMPT_DYNAMIC Wed Sep 10 10:54:24 UTC 2025 (225af75) x86_64 x86_64 x86_64 GNU/Linux
user felipe
output data in /home/felipe/Wide-Band-Gap/Ga2O3/HSE06/OCTAHEDRAL/Ga2O3_VAC_OCTAHEDRAL_ECH3.outp
mpirun executable in /home/felipe/openmpi-4.1.5/bin
file machines.LINUX in /home/felipe/CRYSTAL23/utils23
list of nodes in /home/felipe/CRYSTAL23/utils23/nodes.par
creating temporary directories /home/felipe/tmp/tmp_p123740_felipe on each node
copying input file on each node
scf guess from /home/felipe/Wide-Band-Gap/Ga2O3/HSE06/OCTAHEDRAL/Ga2O3_VAC_OCTAHEDRAL.f9
copying Pproperties executable on each node
properties input data in /home/felipe/Wide-Band-Gap/Ga2O3/HSE06/OCTAHEDRAL/Ga2O3_VAC_OCTAHEDRAL_ECH3.d3
ECH3
200
END
copying input file on each node
wave function formatted data from /home/felipe/Wide-Band-Gap/Ga2O3/HSE06/OCTAHEDRAL/Ga2O3_VAC_OCTAHEDRAL.f98
         128 PROCESSORS WORKING

         
 *******************************************************************************
 *                                                                             *
 *                               CRYSTAL23                                     *
 *                      public : 1.0.1 - October 2022                          *
 *                       HTTP://WWW.CRYSTAL.UNITO.IT                           *
 *                                                                             *
 *                              MAIN AUTHORS                                   *
 *                                                                             *
 *  R. DOVESI(1,11), V.R. SAUNDERS(2), C. ROETTI(1,11), R. ORLANDO(1,11),      *
 *  C.M. ZICOVICH-WILSON(1,3), F. PASCALE(4), B. CIVALLERI(1,11),              *
 *  K. DOLL(5), N.M. HARRISON(6), I.J. BUSH(7), Ph. D'ARCO(8),                 *
 *  M. LLUNELL(9), M. CAUSA'(10), Y. NOEL(8), L. MASCHIO(1,11), A. ERBA(1,11)  *
 *  M. RE'RAT(14), S. CASASSA(1,11), B.G. SEARLE(2), J.K. DESMARAIS(1)         *
 *                                                                             *
 *        CONTRIBUTIONS TO THE CODE HAVE ALSO BEEN GIVEN BY                    *
 *                                                                             *
 *  M. FERRABONE(1,11), M. DE LA PIERRE(1,11), M. FERRERO(1,11),               *
 *  J. BAIMA(1,11), E. ALBANESE(1,11), M.F. PEINTINGER(12), R. BAST(13),       *
 *  B. KIRTMAN(15), V. LACIVITA(1,11), R. DEMICHELIS(1,16)                     *
 *  G. BRANDEBURG(17), S. SALUSTRO(1,11), G. SANSONE(1,11)                     *
 *  M.T. RUGGIERO(18), L.E. DAGA(1), L. DONA'(1), A. COSSARD(1)                *
 *                                                                             *
 * (1) THEORETICAL CHEMISTRY GROUP - UNIVERSITA' DI TORINO - TORINO (ITALY)    *
 * (2) SCIENTIFIC COMPUTING DEPARTMENT - STFC DARESBURY (UK)                   *
 * (3) UNIVERSIDAD AUTONOMA DEL ESTADO DE MORELOS - CUERNAVACA (MEXICO)        *
 * (4) UNIVERSITE' DE LORRAINE - NANCY (FRANCE)                                *
 * (5) UNIVERSITAET STUTTGART- STUTTGART (GERMANY)                             *
 * (6) IMPERIAL COLLEGE - LONDON (UK)                                          *
 * (7) SCIENTIFIC COMPUTING DEPARTMENT - STFC RAL (UK)                         *
 * (8) UPMC - SORBONNE UNIVERSITES - PARIS (FRANCE)                            *
 * (9) UNIVERSIDAD DE BARCELONA - BARCELONA (SPAIN)                            *
 *(10) UNIVERSITA' DI NAPOLI "FEDERICO II" - NAPOLI (ITALY)                    *
 *(11) NIS - NANOSTRUCTURED INTERFACES AND SURFACES - TORINO (ITALY)           *
 *(12) MPI FUER CHEMISCHE ENERGIEKONVERSION - MUELHEIM AN DER RUHR (GERMANY)   *
 *(13) UNIVERSITY OF TROMSO - TROMSO (NORWAY)                                  *
 *(14) UNIVERSITE' DE PAU ET DES PAYS DE L'ADOUR - PAU (FRANCE)                *
 *(15) UNIVERSITY OF CALIFORNIA SANTA BARBARA - SANTA BARBARA (USA)            *
 *(16) CURTIN UNIVERSITY - PERTH (AUSTRALIA)                                   *
 *(17) UNIVERSITY COLLEGE LONDON - LONDON (UK)                                 *
 *(18) UNIVERSITY OF VERMONT - BURLINGTON (USA)                                *
 *                                                                             *
 *******************************************************************************
 EEEEEEEEEE STARTING  DATE 22 10 2025 TIME 20:04:12.5
 INFORMATION **** SET_MPP **** PCRYSTAL CALCULATION

 *******************************************************************************
 β-Ga₂O₃  2×2×2 super-cell  –  neutral VGa(oct)  –  HSE06  –  spin p
 CRYSTAL - PROPERTIES - TYPE OF CALCULATION :  UNRESTRICTED OPEN SHELL
 *******************************************************************************
 SPIN POLARIZED SYSTEM: SUMMED SPIN DENSITY    3.00000000

 KOHN-SHAM HAMILTONIAN

 (EXCHANGE)[CORRELATION] FUNCTIONAL:(HSE06 SR/GGA)[PERDEW-BURKE-ERNZERHOF]

 RANGE-SEPARATED HYBRID FUNCTIONAL 
 OMEGA (SHORT-RANGE)[LONG-RANGE]:(    0.1100)[    0.0000]

 HYBRID EXCHANGE - PERCENTAGE OF FOCK EXCHANGE    25.0000

 SPIN POLARIZED DFT SELECTED

 DIRECT LATTICE VECTOR COMPONENTS (ANGSTROM)
        24.59479   -0.01083    0.07179
        -0.00270    6.12447   -0.00652
        -2.79749   -0.01085   11.34370

 LATTICE PARAMETERS  (ANGSTROM AND DEGREES) - PRIMITIVE CELL
       A          B          C         ALPHA      BETA     GAMMA        VOLUME
   24.59490    6.12447   11.68356     90.1064  103.6861   90.0506    1709.92894
 *******************************************************************************
 N. OF ATOMS PER CELL       160 COULOMB OVERLAP TOL          (T1) 10**   -7
 NUMBER OF SHELLS          1728 COULOMB PENETRATION TOL      (T2) 10**   -7
 NUMBER OF AO              4352 EXCHANGE OVERLAP TOL         (T3) 10**   -7
 N. OF ELECTRONS PER CELL  2721 EXCHANGE PSEUDO OVP (F(G))   (T4) 10**   -7
 CORE ELECTRONS PER CELL   1956 EXCHANGE PSEUDO OVP (P(G))   (T5) 10**  -14
 N. OF SYMMETRY OPERATORS     1 POLE ORDER IN MONO ZONE                   4
 *******************************************************************************
   ATOM N.AT.  SHELL    X(A)      Y(A)      Z(A)      EXAD       N.ELECT.
 *******************************************************************************
    1   31 GA   15    -4.786    -1.524    -1.195   2.831E-01      29.250
    2   31 GA   15    -6.164    -1.509     4.493   2.831E-01      29.244
    3   31 GA   15    -4.691     1.536    -1.220   2.831E-01      29.245
    4   31 GA   15    -6.156     1.548     4.483   2.831E-01      29.238
    5   31 GA   15     7.555    -1.539    -1.124   2.831E-01      29.238
    6   31 GA   15     6.167    -1.545     4.548   2.831E-01      29.237
    7   31 GA   15     7.555     1.523    -1.127   2.831E-01      29.239
    8   31 GA   15     6.165     1.518     4.545   2.831E-01      29.237
    9   31 GA   15     1.367    -0.005    -1.136   2.831E-01      29.274
   10   31 GA   15     0.027    -0.005     4.535   2.831E-01      29.248
   11   31 GA   15     1.351     2.982    -1.148   2.831E-01      29.285
   12   31 GA   15     0.020     3.056     4.543   2.831E-01      29.244
   13   31 GA   15   -10.898     0.008    -1.199   2.831E-01      29.237
   14   31 GA   15   -12.283     0.003     4.477   2.831E-01      29.237
   15   31 GA   15   -10.901     3.071    -1.203   2.831E-01      29.236
   16   31 GA   15   -12.283     3.064     4.472   2.831E-01      29.236
   17   31 GA   15     4.770     1.521     1.197   2.831E-01      29.241
   18   31 GA   15     6.149     1.527    -4.472   2.831E-01      29.237
   19   31 GA   15     4.769    -1.542     1.200   2.831E-01      29.241
   20   31 GA   15     6.156    -1.536    -4.472   2.831E-01      29.238
   21   31 GA   15    -7.530     1.533     1.119   2.831E-01      29.235
   22   31 GA   15    -6.184     1.568    -4.551   2.831E-01      29.235
   23   31 GA   15    -7.553    -1.528     1.128   2.831E-01      29.240
   24   31 GA   15    -6.188    -1.518    -4.566   2.831E-01      29.233
   25   31 GA   15    -1.359    -0.024     1.247   2.831E-01      29.260
   26   31 GA   15     0.110     0.005    -4.565   2.831E-01      29.272
   27   31 GA   15    -1.357     3.051     1.261   2.831E-01      29.251
   28   31 GA   15    -0.000     3.086    -4.504   2.831E-01      29.234
   29   31 GA   15    10.899    -0.003     1.194   2.831E-01      29.237
   30   31 GA   15    12.295    -0.000    -4.475   2.831E-01      29.237
   31   31 GA   15    10.898     3.057     1.191   2.831E-01      29.237
   32   31 GA   15    12.293     3.063    -4.478   2.831E-01      29.237
   33   31 GA   15    -4.629     0.010     1.770   2.831E-01      29.265
   34   31 GA   15    -3.342     0.065    -3.895   2.831E-01      29.298
   35   31 GA   15    -4.632     3.052     1.763   2.831E-01      29.268
   36   31 GA   15    -3.249     3.054    -3.885   2.831E-01      29.314
   37   31 GA   15     7.673    -0.009     1.822   2.831E-01      29.271
   38   31 GA   15     9.062    -0.003    -3.851   2.831E-01      29.271
   39   31 GA   15     7.672     3.054     1.819   2.831E-01      29.271
   40   31 GA   15     9.061     3.059    -3.854   2.831E-01      29.271
   41   31 GA   15     1.559     1.509     1.792   2.831E-01      29.279
   42   31 GA   15     2.920     1.537    -3.836   2.831E-01      29.276
   43   31 GA   15     1.561    -1.555     1.810   2.831E-01      29.269
   44   31 GA   15     2.937    -1.534    -3.842   2.831E-01      29.271
   45   31 GA   15   -10.785     1.540     1.739   2.831E-01      29.270
   46   31 GA   15    -9.395     1.544    -3.919   2.831E-01      29.269
   47   31 GA   15   -10.789    -1.523     1.746   2.831E-01      29.270
   48   31 GA   15    -9.391    -1.520    -3.913   2.831E-01      29.270
   49   31 GA   15     4.638    -0.009    -1.740   2.831E-01      29.272
   50   31 GA   15     3.258    -0.014     3.926   2.831E-01      29.271
   51   31 GA   15     4.636     3.053    -1.741   2.831E-01      29.273
   52   31 GA   15     3.253     3.045     3.924   2.831E-01      29.272
   53   31 GA   15    -7.660     0.012    -1.816   2.831E-01      29.266
   54   31 GA   15    -9.062     0.015     3.845   2.831E-01      29.269
   55   31 GA   15    -7.662     3.065    -1.818   2.831E-01      29.268
   56   31 GA   15    -9.060     3.071     3.836   2.831E-01      29.271
   57    0 XX   15    -1.642     1.743    -2.649   2.831E-01      -0.056
   58   31 GA   15    -2.910     1.534     3.899   2.831E-01      29.273
   59   31 GA   15    -1.499    -1.603    -1.861   2.831E-01      29.294
   60   31 GA   15    -2.906    -1.539     3.893   2.831E-01      29.272
   61   31 GA   15    10.788     1.527    -1.751   2.831E-01      29.270
   62   31 GA   15     9.400     1.522     3.923   2.831E-01      29.270
   63   31 GA   15    10.788    -1.535    -1.748   2.831E-01      29.270
   64   31 GA   15     9.402    -1.541     3.926   2.831E-01      29.270
   65    8 O     8    -5.751     0.016    -1.449   4.535E-01       9.107
   66    8 O     8    -7.142     0.021     4.153   4.535E-01       9.112
   67    8 O     8    -5.748     3.057    -1.449   4.535E-01       9.104
   68    8 O     8    -7.137     3.077     4.160   4.535E-01       9.111
   69    8 O     8     6.565    -0.008    -1.420   4.535E-01       9.109
   70    8 O     8     5.175    -0.015     4.254   4.535E-01       9.111
   71    8 O     8     6.563     3.053    -1.423   4.535E-01       9.109
   72    8 O     8     5.172     3.048     4.252   4.535E-01       9.110
   73    8 O     8     0.365    -1.569    -1.381   4.535E-01       9.133
   74    8 O     8    -0.973    -1.536     4.234   4.535E-01       9.112
   75    8 O     8     0.366     1.480    -1.383   4.535E-01       9.039
   76    8 O     8    -0.975     1.525     4.219   4.535E-01       9.114
   77    8 O     8   -11.889    -1.523    -1.491   4.535E-01       9.111
   78    8 O     8   -13.273    -1.529     4.185   4.535E-01       9.111
   79    8 O     8   -11.889     1.538    -1.494   4.535E-01       9.111
   80    8 O     8   -13.276     1.533     4.183   4.535E-01       9.110
   81    8 O     8     5.754    -0.010     1.495   4.535E-01       9.109
   82    8 O     8     7.141    -0.003    -4.183   4.535E-01       9.108
   83    8 O     8     5.753     3.053     1.491   4.535E-01       9.109
   84    8 O     8     7.140     3.057    -4.187   4.535E-01       9.108
   85    8 O     8    -6.537    -0.007     1.412   4.535E-01       9.107
   86    8 O     8    -5.232     0.021    -4.282   4.535E-01       9.124
   87    8 O     8    -6.540     3.074     1.410   4.535E-01       9.109
   88    8 O     8    -5.190     3.094    -4.278   4.535E-01       9.102
   89    8 O     8    -0.396     1.513     1.441   4.535E-01       9.095
   90    8 O     8     0.987     1.557    -4.190   4.535E-01       9.110
   91    8 O     8    -0.372    -1.547     1.501   4.535E-01       9.100
   92    8 O     8     1.037    -1.530    -4.202   4.535E-01       9.108
   93    8 O     8    11.887     1.527     1.484   4.535E-01       9.109
   94    8 O     8    13.282     1.532    -4.184   4.535E-01       9.111
   95    8 O     8    11.886    -1.534     1.489   4.535E-01       9.111
   96    8 O     8    13.285    -1.530    -4.181   4.535E-01       9.109
   97    8 O     8    -4.274     1.528     0.599   4.535E-01       9.124
   98    8 O     8    -2.862     1.552    -5.097   4.535E-01       9.137
   99    8 O     8    -4.193    -1.531     0.582   4.535E-01       9.104
  100    8 O     8    -2.974    -1.474    -5.059   4.535E-01       9.099
  101    8 O     8     8.020     1.522     0.658   4.535E-01       9.131
  102    8 O     8     9.417     1.528    -5.013   4.535E-01       9.131
  103    8 O     8     8.022    -1.540     0.661   4.535E-01       9.131
  104    8 O     8     9.417    -1.535    -5.010   4.535E-01       9.131
  105    8 O     8     1.884    -0.034     0.654   4.535E-01       9.132
  106    8 O     8     3.253     0.011    -5.017   4.535E-01       9.127
  107    8 O     8     1.871     3.044     0.644   4.535E-01       9.127
  108    8 O     8     3.279     3.058    -5.019   4.535E-01       9.129
  109    8 O     8   -10.438     0.006     0.585   4.535E-01       9.130
  110    8 O     8    -9.030     0.012    -5.079   4.535E-01       9.133
  111    8 O     8   -10.440     3.072     0.580   4.535E-01       9.130
  112    8 O     8    -9.031     3.074    -5.084   4.535E-01       9.134
  113    8 O     8     4.297     1.521    -0.583   4.535E-01       9.126
  114    8 O     8     2.895     1.515     5.083   4.535E-01       9.130
  115    8 O     8     4.304    -1.540    -0.581   4.535E-01       9.123
  116    8 O     8     2.890    -1.545     5.085   4.535E-01       9.133
  117    8 O     8    -8.033     1.537    -0.652   4.535E-01       9.133
  118    8 O     8    -9.428     1.548     4.997   4.535E-01       9.134
  119    8 O     8    -8.016    -1.524    -0.654   4.535E-01       9.130
  120    8 O     8    -9.434    -1.522     4.989   4.535E-01       9.139
  121    8 O     8    -2.028    -0.179    -0.520   4.535E-01       8.568
  122    8 O     8    -3.241    -0.005     5.037   4.535E-01       9.129
  123    8 O     8    -2.098     3.210    -0.477   4.535E-01       8.586
  124    8 O     8    -3.242     3.064     5.048   4.535E-01       9.127
  125    8 O     8    10.431    -0.004    -0.590   4.535E-01       9.132
  126    8 O     8     9.039    -0.010     5.083   4.535E-01       9.132
  127    8 O     8    10.430     3.058    -0.593   4.535E-01       9.132
  128    8 O     8     9.038     3.053     5.080   4.535E-01       9.132
  129    8 O     8    -3.512     1.536    -2.626   4.535E-01       9.190
  130    8 O     8    -4.792     1.534     3.175   4.535E-01       9.253
  131    8 O     8    -3.426    -1.498    -2.473   4.535E-01       9.236
  132    8 O     8    -4.796    -1.528     3.171   4.535E-01       9.241
  133    8 O     8     8.894     1.526    -2.447   4.535E-01       9.251
  134    8 O     8     7.505     1.521     3.228   4.535E-01       9.250
  135    8 O     8     8.895    -1.536    -2.443   4.535E-01       9.251
  136    8 O     8     7.507    -1.541     3.230   4.535E-01       9.251
  137    8 O     8     2.745    -0.018    -2.444   4.535E-01       9.247
  138    8 O     8     1.364    -0.008     3.218   4.535E-01       9.247
  139    8 O     8     2.741     3.055    -2.445   4.535E-01       9.246
  140    8 O     8     1.358     3.043     3.217   4.535E-01       9.242
  141    8 O     8    -9.558     0.010    -2.513   4.535E-01       9.253
  142    8 O     8   -10.951     0.010     3.148   4.535E-01       9.250
  143    8 O     8    -9.562     3.073    -2.517   4.535E-01       9.252
  144    8 O     8   -10.954     3.067     3.142   4.535E-01       9.250
  145    8 O     8     3.426     1.517     2.513   4.535E-01       9.253
  146    8 O     8     4.807     1.524    -3.154   4.535E-01       9.250
  147    8 O     8     3.429    -1.549     2.522   4.535E-01       9.255
  148    8 O     8     4.814    -1.537    -3.155   4.535E-01       9.251
  149    8 O     8    -8.884     1.540     2.427   4.535E-01       9.247
  150    8 O     8    -7.509     1.549    -3.218   4.535E-01       9.255
  151    8 O     8    -8.893    -1.523     2.435   4.535E-01       9.252
  152    8 O     8    -7.503    -1.522    -3.218   4.535E-01       9.251
  153    8 O     8    -2.736    -0.004     2.492   4.535E-01       9.251
  154    8 O     8    -1.343    -0.186    -3.329   4.535E-01       8.714
  155    8 O     8    -2.740     3.057     2.498   4.535E-01       9.257
  156    8 O     8    -1.380     3.293    -3.315   4.535E-01       9.177
  157    8 O     8     9.562    -0.008     2.516   4.535E-01       9.251
  158    8 O     8    10.953    -0.002    -3.158   4.535E-01       9.251
  159    8 O     8     9.561     3.054     2.513   4.535E-01       9.251
  160    8 O     8    10.952     3.060    -3.161   4.535E-01       9.251
 *******************************************************************************
 DE(K)                   0.000E+00  ENERGY LEVEL SHIFTING        0.00000
 TOTAL ENERGY -1.2847593651334E+05  CONVERGENCE ON ENER       -5.997E-08
 KIN. ENERGY   1.2830673743956E+05  VIR. COEFF.           1.01608027E+00
 N. OF SCF CYCLES               10  FERMI ENERGY              -0.100E+01
 WEIGHT OF F(I) IN F(I+1)      30
 SHRINK. FACT.(MONKH.)     2  2  2  SHRINKING FACTOR(GILAT NET)        2
 NUMBER OF K POINTS IN THE IBZ   8  CELL VOLUME (A.U.)      11361.392294
 *******************************************************************************

 GCALCO - MAX INDICES DIRECT LATTICE VECTOR     7    29    15
 NO.OF VECTORS CREATED 6999 STARS 3500 RMAX   268.65658 BOHR
 TTTTTTTTTTTTTTTTTTTTTTTTTTTTTT gordsh1     TELAPSE        3.37 TCPU        2.42

 MATRIX SIZE: P(G)10860928, F(G) 1871645, P(G) IRR 5444160, F(G) IRR 1877949
 MAX G-VECTOR INDEX FOR 1- AND 2-ELECTRON INTEGRALS  89


 CAPPA:IS1  2;IS2  2;IS3  2; K PTS MONK NET   8; SYMMOPS:K SPACE   2;G SPACE   1

 TTTTTTTTTTTTTTTTTTTTTTTTTTTTTT ECH3 START  TELAPSE        8.89 TCPU        7.94

 3D3D3D3D3D3D3D3D3D3D3D3D3D3D3D3D3D3D3D3D3D3D3D3D3D3D3D3D3D3D3D3D3D3D3D3D3D3D3D
 3D DENSITY, GRID IS 200* 51* 96
 TTTTTTTTTTTTTTTTTTTTTTTTTTTTTT CHARGE      TELAPSE     6676.92 TCPU     6591.27
 TTTTTTTTTTTTTTTTTTTTTTTTTTTTTT ECH3 END    TELAPSE     6676.92 TCPU     6591.27
 TTTTTTTTTTTTTTTTTTTTTTTTTTTTTT ECH3        TELAPSE     6676.92 TCPU     6591.27
 ENDPROP   
 TTTTTTTTTTTTTTTTTTTTTTTTTTTTTT END         TELAPSE     6676.92 TCPU     6591.27
 EEEEEEEEEE TERMINATION  DATE 22 10 2025 TIME 21:55:26.7
Wed Oct 22 09:55:27 PM CEST 2025
Contents of temporary directory:
total 28012056
-rw-r--r-- 1 felipe users  12901769 Oct 22 21:00 DENS_CUBE.DAT
-rw-r--r-- 1 felipe users         0 Oct 22 20:04 fort.10.pe000
-rw-r--r-- 1 felipe users         0 Oct 22 20:04 fort.10.pe001
-rw-r--r-- 1 felipe users         0 Oct 22 20:04 fort.10.pe002
-rw-r--r-- 1 felipe users         0 Oct 22 20:04 fort.10.pe003
-rw-r--r-- 1 felipe users         0 Oct 22 20:04 fort.10.pe004
-rw-r--r-- 1 felipe users         0 Oct 22 20:04 fort.10.pe005
-rw-r--r-- 1 felipe users         0 Oct 22 20:04 fort.10.pe006
-rw-r--r-- 1 felipe users         0 Oct 22 20:04 fort.10.pe007
-rw-r--r-- 1 felipe users         0 Oct 22 20:04 fort.10.pe008
-rw-r--r-- 1 felipe users         0 Oct 22 20:04 fort.10.pe009
-rw-r--r-- 1 felipe users         0 Oct 22 20:04 fort.10.pe010
-rw-r--r-- 1 felipe users         0 Oct 22 20:04 fort.10.pe011
-rw-r--r-- 1 felipe users         0 Oct 22 20:04 fort.10.pe012
-rw-r--r-- 1 felipe users         0 Oct 22 20:04 fort.10.pe013
-rw-r--r-- 1 felipe users         0 Oct 22 20:04 fort.10.pe014
-rw-r--r-- 1 felipe users         0 Oct 22 20:04 fort.10.pe015
-rw-r--r-- 1 felipe users         0 Oct 22 20:04 fort.10.pe016
-rw-r--r-- 1 felipe users         0 Oct 22 20:04 fort.10.pe017
-rw-r--r-- 1 felipe users         0 Oct 22 20:04 fort.10.pe018
-rw-r--r-- 1 felipe users         0 Oct 22 20:04 fort.10.pe019
-rw-r--r-- 1 felipe users         0 Oct 22 20:04 fort.10.pe020
-rw-r--r-- 1 felipe users         0 Oct 22 20:04 fort.10.pe021
-rw-r--r-- 1 felipe users         0 Oct 22 20:04 fort.10.pe022
-rw-r--r-- 1 felipe users         0 Oct 22 20:04 fort.10.pe023
-rw-r--r-- 1 felipe users         0 Oct 22 20:04 fort.10.pe024
-rw-r--r-- 1 felipe users         0 Oct 22 20:04 fort.10.pe025
-rw-r--r-- 1 felipe users         0 Oct 22 20:04 fort.10.pe026
-rw-r--r-- 1 felipe users         0 Oct 22 20:04 fort.10.pe027
-rw-r--r-- 1 felipe users         0 Oct 22 20:04 fort.10.pe028
-rw-r--r-- 1 felipe users         0 Oct 22 20:04 fort.10.pe029
-rw-r--r-- 1 felipe users         0 Oct 22 20:04 fort.10.pe030
-rw-r--r-- 1 felipe users         0 Oct 22 20:04 fort.10.pe031
-rw-r--r-- 1 felipe users         0 Oct 22 20:04 fort.10.pe032
-rw-r--r-- 1 felipe users         0 Oct 22 20:04 fort.10.pe033
-rw-r--r-- 1 felipe users         0 Oct 22 20:04 fort.10.pe034
-rw-r--r-- 1 felipe users         0 Oct 22 20:04 fort.10.pe035
-rw-r--r-- 1 felipe users         0 Oct 22 20:04 fort.10.pe036
-rw-r--r-- 1 felipe users         0 Oct 22 20:04 fort.10.pe037
-rw-r--r-- 1 felipe users         0 Oct 22 20:04 fort.10.pe038
-rw-r--r-- 1 felipe users         0 Oct 22 20:04 fort.10.pe039
-rw-r--r-- 1 felipe users         0 Oct 22 20:04 fort.10.pe040
-rw-r--r-- 1 felipe users         0 Oct 22 20:04 fort.10.pe041
-rw-r--r-- 1 felipe users         0 Oct 22 20:04 fort.10.pe042
-rw-r--r-- 1 felipe users         0 Oct 22 20:04 fort.10.pe043
-rw-r--r-- 1 felipe users         0 Oct 22 20:04 fort.10.pe044
-rw-r--r-- 1 felipe users         0 Oct 22 20:04 fort.10.pe045
-rw-r--r-- 1 felipe users         0 Oct 22 20:04 fort.10.pe046
-rw-r--r-- 1 felipe users         0 Oct 22 20:04 fort.10.pe047
-rw-r--r-- 1 felipe users         0 Oct 22 20:04 fort.10.pe048
-rw-r--r-- 1 felipe users         0 Oct 22 20:04 fort.10.pe049
-rw-r--r-- 1 felipe users         0 Oct 22 20:04 fort.10.pe050
-rw-r--r-- 1 felipe users         0 Oct 22 20:04 fort.10.pe051
-rw-r--r-- 1 felipe users         0 Oct 22 20:04 fort.10.pe052
-rw-r--r-- 1 felipe users         0 Oct 22 20:04 fort.10.pe053
-rw-r--r-- 1 felipe users         0 Oct 22 20:04 fort.10.pe054
-rw-r--r-- 1 felipe users         0 Oct 22 20:04 fort.10.pe055
-rw-r--r-- 1 felipe users         0 Oct 22 20:04 fort.10.pe056
-rw-r--r-- 1 felipe users         0 Oct 22 20:04 fort.10.pe057
-rw-r--r-- 1 felipe users         0 Oct 22 20:04 fort.10.pe058
-rw-r--r-- 1 felipe users         0 Oct 22 20:04 fort.10.pe059
-rw-r--r-- 1 felipe users         0 Oct 22 20:04 fort.10.pe060
-rw-r--r-- 1 felipe users         0 Oct 22 20:04 fort.10.pe061
-rw-r--r-- 1 felipe users         0 Oct 22 20:04 fort.10.pe062
-rw-r--r-- 1 felipe users         0 Oct 22 20:04 fort.10.pe063
-rw-r--r-- 1 felipe users         0 Oct 22 20:04 fort.10.pe064
-rw-r--r-- 1 felipe users         0 Oct 22 20:04 fort.10.pe065
-rw-r--r-- 1 felipe users         0 Oct 22 20:04 fort.10.pe066
-rw-r--r-- 1 felipe users         0 Oct 22 20:04 fort.10.pe067
-rw-r--r-- 1 felipe users         0 Oct 22 20:04 fort.10.pe068
-rw-r--r-- 1 felipe users         0 Oct 22 20:04 fort.10.pe069
-rw-r--r-- 1 felipe users         0 Oct 22 20:04 fort.10.pe070
-rw-r--r-- 1 felipe users         0 Oct 22 20:04 fort.10.pe071
-rw-r--r-- 1 felipe users         0 Oct 22 20:04 fort.10.pe072
-rw-r--r-- 1 felipe users         0 Oct 22 20:04 fort.10.pe073
-rw-r--r-- 1 felipe users         0 Oct 22 20:04 fort.10.pe074
-rw-r--r-- 1 felipe users         0 Oct 22 20:04 fort.10.pe075
-rw-r--r-- 1 felipe users         0 Oct 22 20:04 fort.10.pe076
-rw-r--r-- 1 felipe users         0 Oct 22 20:04 fort.10.pe077
-rw-r--r-- 1 felipe users         0 Oct 22 20:04 fort.10.pe078
-rw-r--r-- 1 felipe users         0 Oct 22 20:04 fort.10.pe079
-rw-r--r-- 1 felipe users         0 Oct 22 20:04 fort.10.pe080
-rw-r--r-- 1 felipe users         0 Oct 22 20:04 fort.10.pe081
-rw-r--r-- 1 felipe users         0 Oct 22 20:04 fort.10.pe082
-rw-r--r-- 1 felipe users         0 Oct 22 20:04 fort.10.pe083
-rw-r--r-- 1 felipe users         0 Oct 22 20:04 fort.10.pe084
-rw-r--r-- 1 felipe users         0 Oct 22 20:04 fort.10.pe085
-rw-r--r-- 1 felipe users         0 Oct 22 20:04 fort.10.pe086
-rw-r--r-- 1 felipe users         0 Oct 22 20:04 fort.10.pe087
-rw-r--r-- 1 felipe users         0 Oct 22 20:04 fort.10.pe088
-rw-r--r-- 1 felipe users         0 Oct 22 20:04 fort.10.pe089
-rw-r--r-- 1 felipe users         0 Oct 22 20:04 fort.10.pe090
-rw-r--r-- 1 felipe users         0 Oct 22 20:04 fort.10.pe091
-rw-r--r-- 1 felipe users         0 Oct 22 20:04 fort.10.pe092
-rw-r--r-- 1 felipe users         0 Oct 22 20:04 fort.10.pe093
-rw-r--r-- 1 felipe users         0 Oct 22 20:04 fort.10.pe094
-rw-r--r-- 1 felipe users         0 Oct 22 20:04 fort.10.pe095
-rw-r--r-- 1 felipe users         0 Oct 22 20:04 fort.10.pe096
-rw-r--r-- 1 felipe users         0 Oct 22 20:04 fort.10.pe097
-rw-r--r-- 1 felipe users         0 Oct 22 20:04 fort.10.pe098
-rw-r--r-- 1 felipe users         0 Oct 22 20:04 fort.10.pe099
-rw-r--r-- 1 felipe users         0 Oct 22 20:04 fort.10.pe100
-rw-r--r-- 1 felipe users         0 Oct 22 20:04 fort.10.pe101
-rw-r--r-- 1 felipe users         0 Oct 22 20:04 fort.10.pe102
-rw-r--r-- 1 felipe users         0 Oct 22 20:04 fort.10.pe103
-rw-r--r-- 1 felipe users         0 Oct 22 20:04 fort.10.pe104
-rw-r--r-- 1 felipe users         0 Oct 22 20:04 fort.10.pe105
-rw-r--r-- 1 felipe users         0 Oct 22 20:04 fort.10.pe106
-rw-r--r-- 1 felipe users         0 Oct 22 20:04 fort.10.pe107
-rw-r--r-- 1 felipe users         0 Oct 22 20:04 fort.10.pe108
-rw-r--r-- 1 felipe users         0 Oct 22 20:04 fort.10.pe109
-rw-r--r-- 1 felipe users         0 Oct 22 20:04 fort.10.pe110
-rw-r--r-- 1 felipe users         0 Oct 22 20:04 fort.10.pe111
-rw-r--r-- 1 felipe users         0 Oct 22 20:04 fort.10.pe112
-rw-r--r-- 1 felipe users         0 Oct 22 20:04 fort.10.pe113
-rw-r--r-- 1 felipe users         0 Oct 22 20:04 fort.10.pe114
-rw-r--r-- 1 felipe users         0 Oct 22 20:04 fort.10.pe115
-rw-r--r-- 1 felipe users         0 Oct 22 20:04 fort.10.pe116
-rw-r--r-- 1 felipe users         0 Oct 22 20:04 fort.10.pe117
-rw-r--r-- 1 felipe users         0 Oct 22 20:04 fort.10.pe118
-rw-r--r-- 1 felipe users         0 Oct 22 20:04 fort.10.pe119
-rw-r--r-- 1 felipe users         0 Oct 22 20:04 fort.10.pe120
-rw-r--r-- 1 felipe users         0 Oct 22 20:04 fort.10.pe121
-rw-r--r-- 1 felipe users         0 Oct 22 20:04 fort.10.pe122
-rw-r--r-- 1 felipe users         0 Oct 22 20:04 fort.10.pe123
-rw-r--r-- 1 felipe users         0 Oct 22 20:04 fort.10.pe124
-rw-r--r-- 1 felipe users         0 Oct 22 20:04 fort.10.pe125
-rw-r--r-- 1 felipe users         0 Oct 22 20:04 fort.10.pe126
-rw-r--r-- 1 felipe users         0 Oct 22 20:04 fort.10.pe127
-rw-r--r-- 1 felipe users  29946336 Oct 22 20:04 fort.11.pe000
-rw-r--r-- 1 felipe users  29946336 Oct 22 20:04 fort.11.pe001
-rw-r--r-- 1 felipe users  29946336 Oct 22 20:04 fort.11.pe002
-rw-r--r-- 1 felipe users  29946336 Oct 22 20:04 fort.11.pe003
-rw-r--r-- 1 felipe users  29946336 Oct 22 20:04 fort.11.pe004
-rw-r--r-- 1 felipe users  29946336 Oct 22 20:04 fort.11.pe005
-rw-r--r-- 1 felipe users  29946336 Oct 22 20:04 fort.11.pe006
-rw-r--r-- 1 felipe users  29946336 Oct 22 20:04 fort.11.pe007
-rw-r--r-- 1 felipe users  29946336 Oct 22 20:04 fort.11.pe008
-rw-r--r-- 1 felipe users  29946336 Oct 22 20:04 fort.11.pe009
-rw-r--r-- 1 felipe users  29946336 Oct 22 20:04 fort.11.pe010
-rw-r--r-- 1 felipe users  29946336 Oct 22 20:04 fort.11.pe011
-rw-r--r-- 1 felipe users  29946336 Oct 22 20:04 fort.11.pe012
-rw-r--r-- 1 felipe users  29946336 Oct 22 20:04 fort.11.pe013
-rw-r--r-- 1 felipe users  29946336 Oct 22 20:04 fort.11.pe014
-rw-r--r-- 1 felipe users  29946336 Oct 22 20:04 fort.11.pe015
-rw-r--r-- 1 felipe users  29946336 Oct 22 20:04 fort.11.pe016
-rw-r--r-- 1 felipe users  29946336 Oct 22 20:04 fort.11.pe017
-rw-r--r-- 1 felipe users  29946336 Oct 22 20:04 fort.11.pe018
-rw-r--r-- 1 felipe users  29946336 Oct 22 20:04 fort.11.pe019
-rw-r--r-- 1 felipe users  29946336 Oct 22 20:04 fort.11.pe020
-rw-r--r-- 1 felipe users  29946336 Oct 22 20:04 fort.11.pe021
-rw-r--r-- 1 felipe users  29946336 Oct 22 20:04 fort.11.pe022
-rw-r--r-- 1 felipe users  29946336 Oct 22 20:04 fort.11.pe023
-rw-r--r-- 1 felipe users  29946336 Oct 22 20:04 fort.11.pe024
-rw-r--r-- 1 felipe users  29946336 Oct 22 20:04 fort.11.pe025
-rw-r--r-- 1 felipe users  29946336 Oct 22 20:04 fort.11.pe026
-rw-r--r-- 1 felipe users  29946336 Oct 22 20:04 fort.11.pe027
-rw-r--r-- 1 felipe users  29946336 Oct 22 20:04 fort.11.pe028
-rw-r--r-- 1 felipe users  29946336 Oct 22 20:04 fort.11.pe029
-rw-r--r-- 1 felipe users  29946336 Oct 22 20:04 fort.11.pe030
-rw-r--r-- 1 felipe users  29946336 Oct 22 20:04 fort.11.pe031
-rw-r--r-- 1 felipe users  29946336 Oct 22 20:04 fort.11.pe032
-rw-r--r-- 1 felipe users  29946336 Oct 22 20:04 fort.11.pe033
-rw-r--r-- 1 felipe users  29946336 Oct 22 20:04 fort.11.pe034
-rw-r--r-- 1 felipe users  29946336 Oct 22 20:04 fort.11.pe035
-rw-r--r-- 1 felipe users  29946336 Oct 22 20:04 fort.11.pe036
-rw-r--r-- 1 felipe users  29946336 Oct 22 20:04 fort.11.pe037
-rw-r--r-- 1 felipe users  29946336 Oct 22 20:04 fort.11.pe038
-rw-r--r-- 1 felipe users  29946336 Oct 22 20:04 fort.11.pe039
-rw-r--r-- 1 felipe users  29946336 Oct 22 20:04 fort.11.pe040
-rw-r--r-- 1 felipe users  29946336 Oct 22 20:04 fort.11.pe041
-rw-r--r-- 1 felipe users  29946336 Oct 22 20:04 fort.11.pe042
-rw-r--r-- 1 felipe users  29946336 Oct 22 20:04 fort.11.pe043
-rw-r--r-- 1 felipe users  29946336 Oct 22 20:04 fort.11.pe044
-rw-r--r-- 1 felipe users  29946336 Oct 22 20:04 fort.11.pe045
-rw-r--r-- 1 felipe users  29946336 Oct 22 20:04 fort.11.pe046
-rw-r--r-- 1 felipe users  29946336 Oct 22 20:04 fort.11.pe047
-rw-r--r-- 1 felipe users  29946336 Oct 22 20:04 fort.11.pe048
-rw-r--r-- 1 felipe users  29946336 Oct 22 20:04 fort.11.pe049
-rw-r--r-- 1 felipe users  29946336 Oct 22 20:04 fort.11.pe050
-rw-r--r-- 1 felipe users  29946336 Oct 22 20:04 fort.11.pe051
-rw-r--r-- 1 felipe users  29946336 Oct 22 20:04 fort.11.pe052
-rw-r--r-- 1 felipe users  29946336 Oct 22 20:04 fort.11.pe053
-rw-r--r-- 1 felipe users  29946336 Oct 22 20:04 fort.11.pe054
-rw-r--r-- 1 felipe users  29946336 Oct 22 20:04 fort.11.pe055
-rw-r--r-- 1 felipe users  29946336 Oct 22 20:04 fort.11.pe056
-rw-r--r-- 1 felipe users  29946336 Oct 22 20:04 fort.11.pe057
-rw-r--r-- 1 felipe users  29946336 Oct 22 20:04 fort.11.pe058
-rw-r--r-- 1 felipe users  29946336 Oct 22 20:04 fort.11.pe059
-rw-r--r-- 1 felipe users  29946336 Oct 22 20:04 fort.11.pe060
-rw-r--r-- 1 felipe users  29946336 Oct 22 20:04 fort.11.pe061
-rw-r--r-- 1 felipe users  29946336 Oct 22 20:04 fort.11.pe062
-rw-r--r-- 1 felipe users  29946336 Oct 22 20:04 fort.11.pe063
-rw-r--r-- 1 felipe users  29946336 Oct 22 20:04 fort.11.pe064
-rw-r--r-- 1 felipe users  29946336 Oct 22 20:04 fort.11.pe065
-rw-r--r-- 1 felipe users  29946336 Oct 22 20:04 fort.11.pe066
-rw-r--r-- 1 felipe users  29946336 Oct 22 20:04 fort.11.pe067
-rw-r--r-- 1 felipe users  29946336 Oct 22 20:04 fort.11.pe068
-rw-r--r-- 1 felipe users  29946336 Oct 22 20:04 fort.11.pe069
-rw-r--r-- 1 felipe users  29946336 Oct 22 20:04 fort.11.pe070
-rw-r--r-- 1 felipe users  29946336 Oct 22 20:04 fort.11.pe071
-rw-r--r-- 1 felipe users  29946336 Oct 22 20:04 fort.11.pe072
-rw-r--r-- 1 felipe users  29946336 Oct 22 20:04 fort.11.pe073
-rw-r--r-- 1 felipe users  29946336 Oct 22 20:04 fort.11.pe074
-rw-r--r-- 1 felipe users  29946336 Oct 22 20:04 fort.11.pe075
-rw-r--r-- 1 felipe users  29946336 Oct 22 20:04 fort.11.pe076
-rw-r--r-- 1 felipe users  29946336 Oct 22 20:04 fort.11.pe077
-rw-r--r-- 1 felipe users  29946336 Oct 22 20:04 fort.11.pe078
-rw-r--r-- 1 felipe users  29946336 Oct 22 20:04 fort.11.pe079
-rw-r--r-- 1 felipe users  29946336 Oct 22 20:04 fort.11.pe080
-rw-r--r-- 1 felipe users  29946336 Oct 22 20:04 fort.11.pe081
-rw-r--r-- 1 felipe users  29946336 Oct 22 20:04 fort.11.pe082
-rw-r--r-- 1 felipe users  29946336 Oct 22 20:04 fort.11.pe083
-rw-r--r-- 1 felipe users  29946336 Oct 22 20:04 fort.11.pe084
-rw-r--r-- 1 felipe users  29946336 Oct 22 20:04 fort.11.pe085
-rw-r--r-- 1 felipe users  29946336 Oct 22 20:04 fort.11.pe086
-rw-r--r-- 1 felipe users  29946336 Oct 22 20:04 fort.11.pe087
-rw-r--r-- 1 felipe users  29946336 Oct 22 20:04 fort.11.pe088
-rw-r--r-- 1 felipe users  29946336 Oct 22 20:04 fort.11.pe089
-rw-r--r-- 1 felipe users  29946336 Oct 22 20:04 fort.11.pe090
-rw-r--r-- 1 felipe users  29946336 Oct 22 20:04 fort.11.pe091
-rw-r--r-- 1 felipe users  29946336 Oct 22 20:04 fort.11.pe092
-rw-r--r-- 1 felipe users  29946336 Oct 22 20:04 fort.11.pe093
-rw-r--r-- 1 felipe users  29946336 Oct 22 20:04 fort.11.pe094
-rw-r--r-- 1 felipe users  29946336 Oct 22 20:04 fort.11.pe095
-rw-r--r-- 1 felipe users  29946336 Oct 22 20:04 fort.11.pe096
-rw-r--r-- 1 felipe users  29946336 Oct 22 20:04 fort.11.pe097
-rw-r--r-- 1 felipe users  29946336 Oct 22 20:04 fort.11.pe098
-rw-r--r-- 1 felipe users  29946336 Oct 22 20:04 fort.11.pe099
-rw-r--r-- 1 felipe users  29946336 Oct 22 20:04 fort.11.pe100
-rw-r--r-- 1 felipe users  29946336 Oct 22 20:04 fort.11.pe101
-rw-r--r-- 1 felipe users  29946336 Oct 22 20:04 fort.11.pe102
-rw-r--r-- 1 felipe users  29946336 Oct 22 20:04 fort.11.pe103
-rw-r--r-- 1 felipe users  29946336 Oct 22 20:04 fort.11.pe104
-rw-r--r-- 1 felipe users  29946336 Oct 22 20:04 fort.11.pe105
-rw-r--r-- 1 felipe users  29946336 Oct 22 20:04 fort.11.pe106
-rw-r--r-- 1 felipe users  29946336 Oct 22 20:04 fort.11.pe107
-rw-r--r-- 1 felipe users  29946336 Oct 22 20:04 fort.11.pe108
-rw-r--r-- 1 felipe users  29946336 Oct 22 20:04 fort.11.pe109
-rw-r--r-- 1 felipe users  29946336 Oct 22 20:04 fort.11.pe110
-rw-r--r-- 1 felipe users  29946336 Oct 22 20:04 fort.11.pe111
-rw-r--r-- 1 felipe users  29946336 Oct 22 20:04 fort.11.pe112
-rw-r--r-- 1 felipe users  29946336 Oct 22 20:04 fort.11.pe113
-rw-r--r-- 1 felipe users  29946336 Oct 22 20:04 fort.11.pe114
-rw-r--r-- 1 felipe users  29946336 Oct 22 20:04 fort.11.pe115
-rw-r--r-- 1 felipe users  29946336 Oct 22 20:04 fort.11.pe116
-rw-r--r-- 1 felipe users  29946336 Oct 22 20:04 fort.11.pe117
-rw-r--r-- 1 felipe users  29946336 Oct 22 20:04 fort.11.pe118
-rw-r--r-- 1 felipe users  29946336 Oct 22 20:04 fort.11.pe119
-rw-r--r-- 1 felipe users  29946336 Oct 22 20:04 fort.11.pe120
-rw-r--r-- 1 felipe users  29946336 Oct 22 20:04 fort.11.pe121
-rw-r--r-- 1 felipe users  29946336 Oct 22 20:04 fort.11.pe122
-rw-r--r-- 1 felipe users  29946336 Oct 22 20:04 fort.11.pe123
-rw-r--r-- 1 felipe users  29946336 Oct 22 20:04 fort.11.pe124
-rw-r--r-- 1 felipe users  29946336 Oct 22 20:04 fort.11.pe125
-rw-r--r-- 1 felipe users  29946336 Oct 22 20:04 fort.11.pe126
-rw-r--r-- 1 felipe users  29946336 Oct 22 20:04 fort.11.pe127
-rw-r--r-- 1 felipe users 173774856 Oct 22 20:04 fort.13.pe000
-rw-r--r-- 1 felipe users 173774856 Oct 22 20:04 fort.13.pe001
-rw-r--r-- 1 felipe users 173774856 Oct 22 20:04 fort.13.pe002
-rw-r--r-- 1 felipe users 173774856 Oct 22 20:04 fort.13.pe003
-rw-r--r-- 1 felipe users 173774856 Oct 22 20:04 fort.13.pe004
-rw-r--r-- 1 felipe users 173774856 Oct 22 20:04 fort.13.pe005
-rw-r--r-- 1 felipe users 173774856 Oct 22 20:04 fort.13.pe006
-rw-r--r-- 1 felipe users 173774856 Oct 22 20:04 fort.13.pe007
-rw-r--r-- 1 felipe users 173774856 Oct 22 20:04 fort.13.pe008
-rw-r--r-- 1 felipe users 173774856 Oct 22 20:04 fort.13.pe009
-rw-r--r-- 1 felipe users 173774856 Oct 22 20:04 fort.13.pe010
-rw-r--r-- 1 felipe users 173774856 Oct 22 20:04 fort.13.pe011
-rw-r--r-- 1 felipe users 173774856 Oct 22 20:04 fort.13.pe012
-rw-r--r-- 1 felipe users 173774856 Oct 22 20:04 fort.13.pe013
-rw-r--r-- 1 felipe users 173774856 Oct 22 20:04 fort.13.pe014
-rw-r--r-- 1 felipe users 173774856 Oct 22 20:04 fort.13.pe015
-rw-r--r-- 1 felipe users 173774856 Oct 22 20:04 fort.13.pe016
-rw-r--r-- 1 felipe users 173774856 Oct 22 20:04 fort.13.pe017
-rw-r--r-- 1 felipe users 173774856 Oct 22 20:04 fort.13.pe018
-rw-r--r-- 1 felipe users 173774856 Oct 22 20:04 fort.13.pe019
-rw-r--r-- 1 felipe users 173774856 Oct 22 20:04 fort.13.pe020
-rw-r--r-- 1 felipe users 173774856 Oct 22 20:04 fort.13.pe021
-rw-r--r-- 1 felipe users 173774856 Oct 22 20:04 fort.13.pe022
-rw-r--r-- 1 felipe users 173774856 Oct 22 20:04 fort.13.pe023
-rw-r--r-- 1 felipe users 173774856 Oct 22 20:04 fort.13.pe024
-rw-r--r-- 1 felipe users 173774856 Oct 22 20:04 fort.13.pe025
-rw-r--r-- 1 felipe users 173774856 Oct 22 20:04 fort.13.pe026
-rw-r--r-- 1 felipe users 173774856 Oct 22 20:04 fort.13.pe027
-rw-r--r-- 1 felipe users 173774856 Oct 22 20:04 fort.13.pe028
-rw-r--r-- 1 felipe users 173774856 Oct 22 20:04 fort.13.pe029
-rw-r--r-- 1 felipe users 173774856 Oct 22 20:04 fort.13.pe030
-rw-r--r-- 1 felipe users 173774856 Oct 22 20:04 fort.13.pe031
-rw-r--r-- 1 felipe users 173774856 Oct 22 20:04 fort.13.pe032
-rw-r--r-- 1 felipe users 173774856 Oct 22 20:04 fort.13.pe033
-rw-r--r-- 1 felipe users 173774856 Oct 22 20:04 fort.13.pe034
-rw-r--r-- 1 felipe users 173774856 Oct 22 20:04 fort.13.pe035
-rw-r--r-- 1 felipe users 173774856 Oct 22 20:04 fort.13.pe036
-rw-r--r-- 1 felipe users 173774856 Oct 22 20:04 fort.13.pe037
-rw-r--r-- 1 felipe users 173774856 Oct 22 20:04 fort.13.pe038
-rw-r--r-- 1 felipe users 173774856 Oct 22 20:04 fort.13.pe039
-rw-r--r-- 1 felipe users 173774856 Oct 22 20:04 fort.13.pe040
-rw-r--r-- 1 felipe users 173774856 Oct 22 20:04 fort.13.pe041
-rw-r--r-- 1 felipe users 173774856 Oct 22 20:04 fort.13.pe042
-rw-r--r-- 1 felipe users 173774856 Oct 22 20:04 fort.13.pe043
-rw-r--r-- 1 felipe users 173774856 Oct 22 20:04 fort.13.pe044
-rw-r--r-- 1 felipe users 173774856 Oct 22 20:04 fort.13.pe045
-rw-r--r-- 1 felipe users 173774856 Oct 22 20:04 fort.13.pe046
-rw-r--r-- 1 felipe users 173774856 Oct 22 20:04 fort.13.pe047
-rw-r--r-- 1 felipe users 173774856 Oct 22 20:04 fort.13.pe048
-rw-r--r-- 1 felipe users 173774856 Oct 22 20:04 fort.13.pe049
-rw-r--r-- 1 felipe users 173774856 Oct 22 20:04 fort.13.pe050
-rw-r--r-- 1 felipe users 173774856 Oct 22 20:04 fort.13.pe051
-rw-r--r-- 1 felipe users 173774856 Oct 22 20:04 fort.13.pe052
-rw-r--r-- 1 felipe users 173774856 Oct 22 20:04 fort.13.pe053
-rw-r--r-- 1 felipe users 173774856 Oct 22 20:04 fort.13.pe054
-rw-r--r-- 1 felipe users 173774856 Oct 22 20:04 fort.13.pe055
-rw-r--r-- 1 felipe users 173774856 Oct 22 20:04 fort.13.pe056
-rw-r--r-- 1 felipe users 173774856 Oct 22 20:04 fort.13.pe057
-rw-r--r-- 1 felipe users 173774856 Oct 22 20:04 fort.13.pe058
-rw-r--r-- 1 felipe users 173774856 Oct 22 20:04 fort.13.pe059
-rw-r--r-- 1 felipe users 173774856 Oct 22 20:04 fort.13.pe060
-rw-r--r-- 1 felipe users 173774856 Oct 22 20:04 fort.13.pe061
-rw-r--r-- 1 felipe users 173774856 Oct 22 20:04 fort.13.pe062
-rw-r--r-- 1 felipe users 173774856 Oct 22 20:04 fort.13.pe063
-rw-r--r-- 1 felipe users 173774856 Oct 22 20:04 fort.13.pe064
-rw-r--r-- 1 felipe users 173774856 Oct 22 20:04 fort.13.pe065
-rw-r--r-- 1 felipe users 173774856 Oct 22 20:04 fort.13.pe066
-rw-r--r-- 1 felipe users 173774856 Oct 22 20:04 fort.13.pe067
-rw-r--r-- 1 felipe users 173774856 Oct 22 20:04 fort.13.pe068
-rw-r--r-- 1 felipe users 173774856 Oct 22 20:04 fort.13.pe069
-rw-r--r-- 1 felipe users 173774856 Oct 22 20:04 fort.13.pe070
-rw-r--r-- 1 felipe users 173774856 Oct 22 20:04 fort.13.pe071
-rw-r--r-- 1 felipe users 173774856 Oct 22 20:04 fort.13.pe072
-rw-r--r-- 1 felipe users 173774856 Oct 22 20:04 fort.13.pe073
-rw-r--r-- 1 felipe users 173774856 Oct 22 20:04 fort.13.pe074
-rw-r--r-- 1 felipe users 173774856 Oct 22 20:04 fort.13.pe075
-rw-r--r-- 1 felipe users 173774856 Oct 22 20:04 fort.13.pe076
-rw-r--r-- 1 felipe users 173774856 Oct 22 20:04 fort.13.pe077
-rw-r--r-- 1 felipe users 173774856 Oct 22 20:04 fort.13.pe078
-rw-r--r-- 1 felipe users 173774856 Oct 22 20:04 fort.13.pe079
-rw-r--r-- 1 felipe users 173774856 Oct 22 20:04 fort.13.pe080
-rw-r--r-- 1 felipe users 173774856 Oct 22 20:04 fort.13.pe081
-rw-r--r-- 1 felipe users 173774856 Oct 22 20:04 fort.13.pe082
-rw-r--r-- 1 felipe users 173774856 Oct 22 20:04 fort.13.pe083
-rw-r--r-- 1 felipe users 173774856 Oct 22 20:04 fort.13.pe084
-rw-r--r-- 1 felipe users 173774856 Oct 22 20:04 fort.13.pe085
-rw-r--r-- 1 felipe users 173774856 Oct 22 20:04 fort.13.pe086
-rw-r--r-- 1 felipe users 173774856 Oct 22 20:04 fort.13.pe087
-rw-r--r-- 1 felipe users 173774856 Oct 22 20:04 fort.13.pe088
-rw-r--r-- 1 felipe users 173774856 Oct 22 20:04 fort.13.pe089
-rw-r--r-- 1 felipe users 173774856 Oct 22 20:04 fort.13.pe090
-rw-r--r-- 1 felipe users 173774856 Oct 22 20:04 fort.13.pe091
-rw-r--r-- 1 felipe users 173774856 Oct 22 20:04 fort.13.pe092
-rw-r--r-- 1 felipe users 173774856 Oct 22 20:04 fort.13.pe093
-rw-r--r-- 1 felipe users 173774856 Oct 22 20:04 fort.13.pe094
-rw-r--r-- 1 felipe users 173774856 Oct 22 20:04 fort.13.pe095
-rw-r--r-- 1 felipe users 173774856 Oct 22 20:04 fort.13.pe096
-rw-r--r-- 1 felipe users 173774856 Oct 22 20:04 fort.13.pe097
-rw-r--r-- 1 felipe users 173774856 Oct 22 20:04 fort.13.pe098
-rw-r--r-- 1 felipe users 173774856 Oct 22 20:04 fort.13.pe099
-rw-r--r-- 1 felipe users 173774856 Oct 22 20:04 fort.13.pe100
-rw-r--r-- 1 felipe users 173774856 Oct 22 20:04 fort.13.pe101
-rw-r--r-- 1 felipe users 173774856 Oct 22 20:04 fort.13.pe102
-rw-r--r-- 1 felipe users 173774856 Oct 22 20:04 fort.13.pe103
-rw-r--r-- 1 felipe users 173774856 Oct 22 20:04 fort.13.pe104
-rw-r--r-- 1 felipe users 173774856 Oct 22 20:04 fort.13.pe105
-rw-r--r-- 1 felipe users 173774856 Oct 22 20:04 fort.13.pe106
-rw-r--r-- 1 felipe users 173774856 Oct 22 20:04 fort.13.pe107
-rw-r--r-- 1 felipe users 173774856 Oct 22 20:04 fort.13.pe108
-rw-r--r-- 1 felipe users 173774856 Oct 22 20:04 fort.13.pe109
-rw-r--r-- 1 felipe users 173774856 Oct 22 20:04 fort.13.pe110
-rw-r--r-- 1 felipe users 173774856 Oct 22 20:04 fort.13.pe111
-rw-r--r-- 1 felipe users 173774856 Oct 22 20:04 fort.13.pe112
-rw-r--r-- 1 felipe users 173774856 Oct 22 20:04 fort.13.pe113
-rw-r--r-- 1 felipe users 173774856 Oct 22 20:04 fort.13.pe114
-rw-r--r-- 1 felipe users 173774856 Oct 22 20:04 fort.13.pe115
-rw-r--r-- 1 felipe users 173774856 Oct 22 20:04 fort.13.pe116
-rw-r--r-- 1 felipe users 173774856 Oct 22 20:04 fort.13.pe117
-rw-r--r-- 1 felipe users 173774856 Oct 22 20:04 fort.13.pe118
-rw-r--r-- 1 felipe users 173774856 Oct 22 20:04 fort.13.pe119
-rw-r--r-- 1 felipe users 173774856 Oct 22 20:04 fort.13.pe120
-rw-r--r-- 1 felipe users 173774856 Oct 22 20:04 fort.13.pe121
-rw-r--r-- 1 felipe users 173774856 Oct 22 20:04 fort.13.pe122
-rw-r--r-- 1 felipe users 173774856 Oct 22 20:04 fort.13.pe123
-rw-r--r-- 1 felipe users 173774856 Oct 22 20:04 fort.13.pe124
-rw-r--r-- 1 felipe users 173774856 Oct 22 20:04 fort.13.pe125
-rw-r--r-- 1 felipe users 173774856 Oct 22 20:04 fort.13.pe126
-rw-r--r-- 1 felipe users 173774856 Oct 22 20:04 fort.13.pe127
-rw-r--r-- 1 felipe users         0 Oct 22 20:04 fort.15.pe000
-rw-r--r-- 1 felipe users         0 Oct 22 20:04 fort.15.pe001
-rw-r--r-- 1 felipe users         0 Oct 22 20:04 fort.15.pe002
-rw-r--r-- 1 felipe users         0 Oct 22 20:04 fort.15.pe003
-rw-r--r-- 1 felipe users         0 Oct 22 20:04 fort.15.pe004
-rw-r--r-- 1 felipe users         0 Oct 22 20:04 fort.15.pe005
-rw-r--r-- 1 felipe users         0 Oct 22 20:04 fort.15.pe006
-rw-r--r-- 1 felipe users         0 Oct 22 20:04 fort.15.pe007
-rw-r--r-- 1 felipe users         0 Oct 22 20:04 fort.15.pe008
-rw-r--r-- 1 felipe users         0 Oct 22 20:04 fort.15.pe009
-rw-r--r-- 1 felipe users         0 Oct 22 20:04 fort.15.pe010
-rw-r--r-- 1 felipe users         0 Oct 22 20:04 fort.15.pe011
-rw-r--r-- 1 felipe users         0 Oct 22 20:04 fort.15.pe012
-rw-r--r-- 1 felipe users         0 Oct 22 20:04 fort.15.pe013
-rw-r--r-- 1 felipe users         0 Oct 22 20:04 fort.15.pe014
-rw-r--r-- 1 felipe users         0 Oct 22 20:04 fort.15.pe015
-rw-r--r-- 1 felipe users         0 Oct 22 20:04 fort.15.pe016
-rw-r--r-- 1 felipe users         0 Oct 22 20:04 fort.15.pe017
-rw-r--r-- 1 felipe users         0 Oct 22 20:04 fort.15.pe018
-rw-r--r-- 1 felipe users         0 Oct 22 20:04 fort.15.pe019
-rw-r--r-- 1 felipe users         0 Oct 22 20:04 fort.15.pe020
-rw-r--r-- 1 felipe users         0 Oct 22 20:04 fort.15.pe021
-rw-r--r-- 1 felipe users         0 Oct 22 20:04 fort.15.pe022
-rw-r--r-- 1 felipe users         0 Oct 22 20:04 fort.15.pe023
-rw-r--r-- 1 felipe users         0 Oct 22 20:04 fort.15.pe024
-rw-r--r-- 1 felipe users         0 Oct 22 20:04 fort.15.pe025
-rw-r--r-- 1 felipe users         0 Oct 22 20:04 fort.15.pe026
-rw-r--r-- 1 felipe users         0 Oct 22 20:04 fort.15.pe027
-rw-r--r-- 1 felipe users         0 Oct 22 20:04 fort.15.pe028
-rw-r--r-- 1 felipe users         0 Oct 22 20:04 fort.15.pe029
-rw-r--r-- 1 felipe users         0 Oct 22 20:04 fort.15.pe030
-rw-r--r-- 1 felipe users         0 Oct 22 20:04 fort.15.pe031
-rw-r--r-- 1 felipe users         0 Oct 22 20:04 fort.15.pe032
-rw-r--r-- 1 felipe users         0 Oct 22 20:04 fort.15.pe033
-rw-r--r-- 1 felipe users         0 Oct 22 20:04 fort.15.pe034
-rw-r--r-- 1 felipe users         0 Oct 22 20:04 fort.15.pe035
-rw-r--r-- 1 felipe users         0 Oct 22 20:04 fort.15.pe036
-rw-r--r-- 1 felipe users         0 Oct 22 20:04 fort.15.pe037
-rw-r--r-- 1 felipe users         0 Oct 22 20:04 fort.15.pe038
-rw-r--r-- 1 felipe users         0 Oct 22 20:04 fort.15.pe039
-rw-r--r-- 1 felipe users         0 Oct 22 20:04 fort.15.pe040
-rw-r--r-- 1 felipe users         0 Oct 22 20:04 fort.15.pe041
-rw-r--r-- 1 felipe users         0 Oct 22 20:04 fort.15.pe042
-rw-r--r-- 1 felipe users         0 Oct 22 20:04 fort.15.pe043
-rw-r--r-- 1 felipe users         0 Oct 22 20:04 fort.15.pe044
-rw-r--r-- 1 felipe users         0 Oct 22 20:04 fort.15.pe045
-rw-r--r-- 1 felipe users         0 Oct 22 20:04 fort.15.pe046
-rw-r--r-- 1 felipe users         0 Oct 22 20:04 fort.15.pe047
-rw-r--r-- 1 felipe users         0 Oct 22 20:04 fort.15.pe048
-rw-r--r-- 1 felipe users         0 Oct 22 20:04 fort.15.pe049
-rw-r--r-- 1 felipe users         0 Oct 22 20:04 fort.15.pe050
-rw-r--r-- 1 felipe users         0 Oct 22 20:04 fort.15.pe051
-rw-r--r-- 1 felipe users         0 Oct 22 20:04 fort.15.pe052
-rw-r--r-- 1 felipe users         0 Oct 22 20:04 fort.15.pe053
-rw-r--r-- 1 felipe users         0 Oct 22 20:04 fort.15.pe054
-rw-r--r-- 1 felipe users         0 Oct 22 20:04 fort.15.pe055
-rw-r--r-- 1 felipe users         0 Oct 22 20:04 fort.15.pe056
-rw-r--r-- 1 felipe users         0 Oct 22 20:04 fort.15.pe057
-rw-r--r-- 1 felipe users         0 Oct 22 20:04 fort.15.pe058
-rw-r--r-- 1 felipe users         0 Oct 22 20:04 fort.15.pe059
-rw-r--r-- 1 felipe users         0 Oct 22 20:04 fort.15.pe060
-rw-r--r-- 1 felipe users         0 Oct 22 20:04 fort.15.pe061
-rw-r--r-- 1 felipe users         0 Oct 22 20:04 fort.15.pe062
-rw-r--r-- 1 felipe users         0 Oct 22 20:04 fort.15.pe063
-rw-r--r-- 1 felipe users         0 Oct 22 20:04 fort.15.pe064
-rw-r--r-- 1 felipe users         0 Oct 22 20:04 fort.15.pe065
-rw-r--r-- 1 felipe users         0 Oct 22 20:04 fort.15.pe066
-rw-r--r-- 1 felipe users         0 Oct 22 20:04 fort.15.pe067
-rw-r--r-- 1 felipe users         0 Oct 22 20:04 fort.15.pe068
-rw-r--r-- 1 felipe users         0 Oct 22 20:04 fort.15.pe069
-rw-r--r-- 1 felipe users         0 Oct 22 20:04 fort.15.pe070
-rw-r--r-- 1 felipe users         0 Oct 22 20:04 fort.15.pe071
-rw-r--r-- 1 felipe users         0 Oct 22 20:04 fort.15.pe072
-rw-r--r-- 1 felipe users         0 Oct 22 20:04 fort.15.pe073
-rw-r--r-- 1 felipe users         0 Oct 22 20:04 fort.15.pe074
-rw-r--r-- 1 felipe users         0 Oct 22 20:04 fort.15.pe075
-rw-r--r-- 1 felipe users         0 Oct 22 20:04 fort.15.pe076
-rw-r--r-- 1 felipe users         0 Oct 22 20:04 fort.15.pe077
-rw-r--r-- 1 felipe users         0 Oct 22 20:04 fort.15.pe078
-rw-r--r-- 1 felipe users         0 Oct 22 20:04 fort.15.pe079
-rw-r--r-- 1 felipe users         0 Oct 22 20:04 fort.15.pe080
-rw-r--r-- 1 felipe users         0 Oct 22 20:04 fort.15.pe081
-rw-r--r-- 1 felipe users         0 Oct 22 20:04 fort.15.pe082
-rw-r--r-- 1 felipe users         0 Oct 22 20:04 fort.15.pe083
-rw-r--r-- 1 felipe users         0 Oct 22 20:04 fort.15.pe084
-rw-r--r-- 1 felipe users         0 Oct 22 20:04 fort.15.pe085
-rw-r--r-- 1 felipe users         0 Oct 22 20:04 fort.15.pe086
-rw-r--r-- 1 felipe users         0 Oct 22 20:04 fort.15.pe087
-rw-r--r-- 1 felipe users         0 Oct 22 20:04 fort.15.pe088
-rw-r--r-- 1 felipe users         0 Oct 22 20:04 fort.15.pe089
-rw-r--r-- 1 felipe users         0 Oct 22 20:04 fort.15.pe090
-rw-r--r-- 1 felipe users         0 Oct 22 20:04 fort.15.pe091
-rw-r--r-- 1 felipe users         0 Oct 22 20:04 fort.15.pe092
-rw-r--r-- 1 felipe users         0 Oct 22 20:04 fort.15.pe093
-rw-r--r-- 1 felipe users         0 Oct 22 20:04 fort.15.pe094
-rw-r--r-- 1 felipe users         0 Oct 22 20:04 fort.15.pe095
-rw-r--r-- 1 felipe users         0 Oct 22 20:04 fort.15.pe096
-rw-r--r-- 1 felipe users         0 Oct 22 20:04 fort.15.pe097
-rw-r--r-- 1 felipe users         0 Oct 22 20:04 fort.15.pe098
-rw-r--r-- 1 felipe users         0 Oct 22 20:04 fort.15.pe099
-rw-r--r-- 1 felipe users         0 Oct 22 20:04 fort.15.pe100
-rw-r--r-- 1 felipe users         0 Oct 22 20:04 fort.15.pe101
-rw-r--r-- 1 felipe users         0 Oct 22 20:04 fort.15.pe102
-rw-r--r-- 1 felipe users         0 Oct 22 20:04 fort.15.pe103
-rw-r--r-- 1 felipe users         0 Oct 22 20:04 fort.15.pe104
-rw-r--r-- 1 felipe users         0 Oct 22 20:04 fort.15.pe105
-rw-r--r-- 1 felipe users         0 Oct 22 20:04 fort.15.pe106
-rw-r--r-- 1 felipe users         0 Oct 22 20:04 fort.15.pe107
-rw-r--r-- 1 felipe users         0 Oct 22 20:04 fort.15.pe108
-rw-r--r-- 1 felipe users         0 Oct 22 20:04 fort.15.pe109
-rw-r--r-- 1 felipe users         0 Oct 22 20:04 fort.15.pe110
-rw-r--r-- 1 felipe users         0 Oct 22 20:04 fort.15.pe111
-rw-r--r-- 1 felipe users         0 Oct 22 20:04 fort.15.pe112
-rw-r--r-- 1 felipe users         0 Oct 22 20:04 fort.15.pe113
-rw-r--r-- 1 felipe users         0 Oct 22 20:04 fort.15.pe114
-rw-r--r-- 1 felipe users         0 Oct 22 20:04 fort.15.pe115
-rw-r--r-- 1 felipe users         0 Oct 22 20:04 fort.15.pe116
-rw-r--r-- 1 felipe users         0 Oct 22 20:04 fort.15.pe117
-rw-r--r-- 1 felipe users         0 Oct 22 20:04 fort.15.pe118
-rw-r--r-- 1 felipe users         0 Oct 22 20:04 fort.15.pe119
-rw-r--r-- 1 felipe users         0 Oct 22 20:04 fort.15.pe120
-rw-r--r-- 1 felipe users         0 Oct 22 20:04 fort.15.pe121
-rw-r--r-- 1 felipe users         0 Oct 22 20:04 fort.15.pe122
-rw-r--r-- 1 felipe users         0 Oct 22 20:04 fort.15.pe123
-rw-r--r-- 1 felipe users         0 Oct 22 20:04 fort.15.pe124
-rw-r--r-- 1 felipe users         0 Oct 22 20:04 fort.15.pe125
-rw-r--r-- 1 felipe users         0 Oct 22 20:04 fort.15.pe126
-rw-r--r-- 1 felipe users         0 Oct 22 20:04 fort.15.pe127
-rw-r--r-- 1 felipe users         0 Oct 22 20:04 fort.26.pe000
-rw-r--r-- 1 felipe users         0 Oct 22 20:04 fort.26.pe001
-rw-r--r-- 1 felipe users         0 Oct 22 20:04 fort.26.pe002
-rw-r--r-- 1 felipe users         0 Oct 22 20:04 fort.26.pe003
-rw-r--r-- 1 felipe users         0 Oct 22 20:04 fort.26.pe004
-rw-r--r-- 1 felipe users         0 Oct 22 20:04 fort.26.pe005
-rw-r--r-- 1 felipe users         0 Oct 22 20:04 fort.26.pe006
-rw-r--r-- 1 felipe users         0 Oct 22 20:04 fort.26.pe007
-rw-r--r-- 1 felipe users         0 Oct 22 20:04 fort.26.pe008
-rw-r--r-- 1 felipe users         0 Oct 22 20:04 fort.26.pe009
-rw-r--r-- 1 felipe users         0 Oct 22 20:04 fort.26.pe010
-rw-r--r-- 1 felipe users         0 Oct 22 20:04 fort.26.pe011
-rw-r--r-- 1 felipe users         0 Oct 22 20:04 fort.26.pe012
-rw-r--r-- 1 felipe users         0 Oct 22 20:04 fort.26.pe013
-rw-r--r-- 1 felipe users         0 Oct 22 20:04 fort.26.pe014
-rw-r--r-- 1 felipe users         0 Oct 22 20:04 fort.26.pe015
-rw-r--r-- 1 felipe users         0 Oct 22 20:04 fort.26.pe016
-rw-r--r-- 1 felipe users         0 Oct 22 20:04 fort.26.pe017
-rw-r--r-- 1 felipe users         0 Oct 22 20:04 fort.26.pe018
-rw-r--r-- 1 felipe users         0 Oct 22 20:04 fort.26.pe019
-rw-r--r-- 1 felipe users         0 Oct 22 20:04 fort.26.pe020
-rw-r--r-- 1 felipe users         0 Oct 22 20:04 fort.26.pe021
-rw-r--r-- 1 felipe users         0 Oct 22 20:04 fort.26.pe022
-rw-r--r-- 1 felipe users         0 Oct 22 20:04 fort.26.pe023
-rw-r--r-- 1 felipe users         0 Oct 22 20:04 fort.26.pe024
-rw-r--r-- 1 felipe users         0 Oct 22 20:04 fort.26.pe025
-rw-r--r-- 1 felipe users         0 Oct 22 20:04 fort.26.pe026
-rw-r--r-- 1 felipe users         0 Oct 22 20:04 fort.26.pe027
-rw-r--r-- 1 felipe users         0 Oct 22 20:04 fort.26.pe028
-rw-r--r-- 1 felipe users         0 Oct 22 20:04 fort.26.pe029
-rw-r--r-- 1 felipe users         0 Oct 22 20:04 fort.26.pe030
-rw-r--r-- 1 felipe users         0 Oct 22 20:04 fort.26.pe031
-rw-r--r-- 1 felipe users         0 Oct 22 20:04 fort.26.pe032
-rw-r--r-- 1 felipe users         0 Oct 22 20:04 fort.26.pe033
-rw-r--r-- 1 felipe users         0 Oct 22 20:04 fort.26.pe034
-rw-r--r-- 1 felipe users         0 Oct 22 20:04 fort.26.pe035
-rw-r--r-- 1 felipe users         0 Oct 22 20:04 fort.26.pe036
-rw-r--r-- 1 felipe users         0 Oct 22 20:04 fort.26.pe037
-rw-r--r-- 1 felipe users         0 Oct 22 20:04 fort.26.pe038
-rw-r--r-- 1 felipe users         0 Oct 22 20:04 fort.26.pe039
-rw-r--r-- 1 felipe users         0 Oct 22 20:04 fort.26.pe040
-rw-r--r-- 1 felipe users         0 Oct 22 20:04 fort.26.pe041
-rw-r--r-- 1 felipe users         0 Oct 22 20:04 fort.26.pe042
-rw-r--r-- 1 felipe users         0 Oct 22 20:04 fort.26.pe043
-rw-r--r-- 1 felipe users         0 Oct 22 20:04 fort.26.pe044
-rw-r--r-- 1 felipe users         0 Oct 22 20:04 fort.26.pe045
-rw-r--r-- 1 felipe users         0 Oct 22 20:04 fort.26.pe046
-rw-r--r-- 1 felipe users         0 Oct 22 20:04 fort.26.pe047
-rw-r--r-- 1 felipe users         0 Oct 22 20:04 fort.26.pe048
-rw-r--r-- 1 felipe users         0 Oct 22 20:04 fort.26.pe049
-rw-r--r-- 1 felipe users         0 Oct 22 20:04 fort.26.pe050
-rw-r--r-- 1 felipe users         0 Oct 22 20:04 fort.26.pe051
-rw-r--r-- 1 felipe users         0 Oct 22 20:04 fort.26.pe052
-rw-r--r-- 1 felipe users         0 Oct 22 20:04 fort.26.pe053
-rw-r--r-- 1 felipe users         0 Oct 22 20:04 fort.26.pe054
-rw-r--r-- 1 felipe users         0 Oct 22 20:04 fort.26.pe055
-rw-r--r-- 1 felipe users         0 Oct 22 20:04 fort.26.pe056
-rw-r--r-- 1 felipe users         0 Oct 22 20:04 fort.26.pe057
-rw-r--r-- 1 felipe users         0 Oct 22 20:04 fort.26.pe058
-rw-r--r-- 1 felipe users         0 Oct 22 20:04 fort.26.pe059
-rw-r--r-- 1 felipe users         0 Oct 22 20:04 fort.26.pe060
-rw-r--r-- 1 felipe users         0 Oct 22 20:04 fort.26.pe061
-rw-r--r-- 1 felipe users         0 Oct 22 20:04 fort.26.pe062
-rw-r--r-- 1 felipe users         0 Oct 22 20:04 fort.26.pe063
-rw-r--r-- 1 felipe users         0 Oct 22 20:04 fort.26.pe064
-rw-r--r-- 1 felipe users         0 Oct 22 20:04 fort.26.pe065
-rw-r--r-- 1 felipe users         0 Oct 22 20:04 fort.26.pe066
-rw-r--r-- 1 felipe users         0 Oct 22 20:04 fort.26.pe067
-rw-r--r-- 1 felipe users         0 Oct 22 20:04 fort.26.pe068
-rw-r--r-- 1 felipe users         0 Oct 22 20:04 fort.26.pe069
-rw-r--r-- 1 felipe users         0 Oct 22 20:04 fort.26.pe070
-rw-r--r-- 1 felipe users         0 Oct 22 20:04 fort.26.pe071
-rw-r--r-- 1 felipe users         0 Oct 22 20:04 fort.26.pe072
-rw-r--r-- 1 felipe users         0 Oct 22 20:04 fort.26.pe073
-rw-r--r-- 1 felipe users         0 Oct 22 20:04 fort.26.pe074
-rw-r--r-- 1 felipe users         0 Oct 22 20:04 fort.26.pe075
-rw-r--r-- 1 felipe users         0 Oct 22 20:04 fort.26.pe076
-rw-r--r-- 1 felipe users         0 Oct 22 20:04 fort.26.pe077
-rw-r--r-- 1 felipe users         0 Oct 22 20:04 fort.26.pe078
-rw-r--r-- 1 felipe users         0 Oct 22 20:04 fort.26.pe079
-rw-r--r-- 1 felipe users         0 Oct 22 20:04 fort.26.pe080
-rw-r--r-- 1 felipe users         0 Oct 22 20:04 fort.26.pe081
-rw-r--r-- 1 felipe users         0 Oct 22 20:04 fort.26.pe082
-rw-r--r-- 1 felipe users         0 Oct 22 20:04 fort.26.pe083
-rw-r--r-- 1 felipe users         0 Oct 22 20:04 fort.26.pe084
-rw-r--r-- 1 felipe users         0 Oct 22 20:04 fort.26.pe085
-rw-r--r-- 1 felipe users         0 Oct 22 20:04 fort.26.pe086
-rw-r--r-- 1 felipe users         0 Oct 22 20:04 fort.26.pe087
-rw-r--r-- 1 felipe users         0 Oct 22 20:04 fort.26.pe088
-rw-r--r-- 1 felipe users         0 Oct 22 20:04 fort.26.pe089
-rw-r--r-- 1 felipe users         0 Oct 22 20:04 fort.26.pe090
-rw-r--r-- 1 felipe users         0 Oct 22 20:04 fort.26.pe091
-rw-r--r-- 1 felipe users         0 Oct 22 20:04 fort.26.pe092
-rw-r--r-- 1 felipe users         0 Oct 22 20:04 fort.26.pe093
-rw-r--r-- 1 felipe users         0 Oct 22 20:04 fort.26.pe094
-rw-r--r-- 1 felipe users         0 Oct 22 20:04 fort.26.pe095
-rw-r--r-- 1 felipe users         0 Oct 22 20:04 fort.26.pe096
-rw-r--r-- 1 felipe users         0 Oct 22 20:04 fort.26.pe097
-rw-r--r-- 1 felipe users         0 Oct 22 20:04 fort.26.pe098
-rw-r--r-- 1 felipe users         0 Oct 22 20:04 fort.26.pe099
-rw-r--r-- 1 felipe users         0 Oct 22 20:04 fort.26.pe100
-rw-r--r-- 1 felipe users         0 Oct 22 20:04 fort.26.pe101
-rw-r--r-- 1 felipe users         0 Oct 22 20:04 fort.26.pe102
-rw-r--r-- 1 felipe users         0 Oct 22 20:04 fort.26.pe103
-rw-r--r-- 1 felipe users         0 Oct 22 20:04 fort.26.pe104
-rw-r--r-- 1 felipe users         0 Oct 22 20:04 fort.26.pe105
-rw-r--r-- 1 felipe users         0 Oct 22 20:04 fort.26.pe106
-rw-r--r-- 1 felipe users         0 Oct 22 20:04 fort.26.pe107
-rw-r--r-- 1 felipe users         0 Oct 22 20:04 fort.26.pe108
-rw-r--r-- 1 felipe users         0 Oct 22 20:04 fort.26.pe109
-rw-r--r-- 1 felipe users         0 Oct 22 20:04 fort.26.pe110
-rw-r--r-- 1 felipe users         0 Oct 22 20:04 fort.26.pe111
-rw-r--r-- 1 felipe users         0 Oct 22 20:04 fort.26.pe112
-rw-r--r-- 1 felipe users         0 Oct 22 20:04 fort.26.pe113
-rw-r--r-- 1 felipe users         0 Oct 22 20:04 fort.26.pe114
-rw-r--r-- 1 felipe users         0 Oct 22 20:04 fort.26.pe115
-rw-r--r-- 1 felipe users         0 Oct 22 20:04 fort.26.pe116
-rw-r--r-- 1 felipe users         0 Oct 22 20:04 fort.26.pe117
-rw-r--r-- 1 felipe users         0 Oct 22 20:04 fort.26.pe118
-rw-r--r-- 1 felipe users         0 Oct 22 20:04 fort.26.pe119
-rw-r--r-- 1 felipe users         0 Oct 22 20:04 fort.26.pe120
-rw-r--r-- 1 felipe users         0 Oct 22 20:04 fort.26.pe121
-rw-r--r-- 1 felipe users         0 Oct 22 20:04 fort.26.pe122
-rw-r--r-- 1 felipe users         0 Oct 22 20:04 fort.26.pe123
-rw-r--r-- 1 felipe users         0 Oct 22 20:04 fort.26.pe124
-rw-r--r-- 1 felipe users         0 Oct 22 20:04 fort.26.pe125
-rw-r--r-- 1 felipe users         0 Oct 22 20:04 fort.26.pe126
-rw-r--r-- 1 felipe users         0 Oct 22 20:04 fort.26.pe127
-rw-r--r-- 1 felipe users  39559908 Oct 22 21:55 fort.31
-rw-r--r-- 1 felipe users  14973168 Oct 22 20:04 fort.3.pe000
-rw-r--r-- 1 felipe users  14973168 Oct 22 20:04 fort.3.pe001
-rw-r--r-- 1 felipe users  14973168 Oct 22 20:04 fort.3.pe002
-rw-r--r-- 1 felipe users  14973168 Oct 22 20:04 fort.3.pe003
-rw-r--r-- 1 felipe users  14973168 Oct 22 20:04 fort.3.pe004
-rw-r--r-- 1 felipe users  14973168 Oct 22 20:04 fort.3.pe005
-rw-r--r-- 1 felipe users  14973168 Oct 22 20:04 fort.3.pe006
-rw-r--r-- 1 felipe users  14973168 Oct 22 20:04 fort.3.pe007
-rw-r--r-- 1 felipe users  14973168 Oct 22 20:04 fort.3.pe008
-rw-r--r-- 1 felipe users  14973168 Oct 22 20:04 fort.3.pe009
-rw-r--r-- 1 felipe users  14973168 Oct 22 20:04 fort.3.pe010
-rw-r--r-- 1 felipe users  14973168 Oct 22 20:04 fort.3.pe011
-rw-r--r-- 1 felipe users  14973168 Oct 22 20:04 fort.3.pe012
-rw-r--r-- 1 felipe users  14973168 Oct 22 20:04 fort.3.pe013
-rw-r--r-- 1 felipe users  14973168 Oct 22 20:04 fort.3.pe014
-rw-r--r-- 1 felipe users  14973168 Oct 22 20:04 fort.3.pe015
-rw-r--r-- 1 felipe users  14973168 Oct 22 20:04 fort.3.pe016
-rw-r--r-- 1 felipe users  14973168 Oct 22 20:04 fort.3.pe017
-rw-r--r-- 1 felipe users  14973168 Oct 22 20:04 fort.3.pe018
-rw-r--r-- 1 felipe users  14973168 Oct 22 20:04 fort.3.pe019
-rw-r--r-- 1 felipe users  14973168 Oct 22 20:04 fort.3.pe020
-rw-r--r-- 1 felipe users  14973168 Oct 22 20:04 fort.3.pe021
-rw-r--r-- 1 felipe users  14973168 Oct 22 20:04 fort.3.pe022
-rw-r--r-- 1 felipe users  14973168 Oct 22 20:04 fort.3.pe023
-rw-r--r-- 1 felipe users  14973168 Oct 22 20:04 fort.3.pe024
-rw-r--r-- 1 felipe users  14973168 Oct 22 20:04 fort.3.pe025
-rw-r--r-- 1 felipe users  14973168 Oct 22 20:04 fort.3.pe026
-rw-r--r-- 1 felipe users  14973168 Oct 22 20:04 fort.3.pe027
-rw-r--r-- 1 felipe users  14973168 Oct 22 20:04 fort.3.pe028
-rw-r--r-- 1 felipe users  14973168 Oct 22 20:04 fort.3.pe029
-rw-r--r-- 1 felipe users  14973168 Oct 22 20:04 fort.3.pe030
-rw-r--r-- 1 felipe users  14973168 Oct 22 20:04 fort.3.pe031
-rw-r--r-- 1 felipe users  14973168 Oct 22 20:04 fort.3.pe032
-rw-r--r-- 1 felipe users  14973168 Oct 22 20:04 fort.3.pe033
-rw-r--r-- 1 felipe users  14973168 Oct 22 20:04 fort.3.pe034
-rw-r--r-- 1 felipe users  14973168 Oct 22 20:04 fort.3.pe035
-rw-r--r-- 1 felipe users  14973168 Oct 22 20:04 fort.3.pe036
-rw-r--r-- 1 felipe users  14973168 Oct 22 20:04 fort.3.pe037
-rw-r--r-- 1 felipe users  14973168 Oct 22 20:04 fort.3.pe038
-rw-r--r-- 1 felipe users  14973168 Oct 22 20:04 fort.3.pe039
-rw-r--r-- 1 felipe users  14973168 Oct 22 20:04 fort.3.pe040
-rw-r--r-- 1 felipe users  14973168 Oct 22 20:04 fort.3.pe041
-rw-r--r-- 1 felipe users  14973168 Oct 22 20:04 fort.3.pe042
-rw-r--r-- 1 felipe users  14973168 Oct 22 20:04 fort.3.pe043
-rw-r--r-- 1 felipe users  14973168 Oct 22 20:04 fort.3.pe044
-rw-r--r-- 1 felipe users  14973168 Oct 22 20:04 fort.3.pe045
-rw-r--r-- 1 felipe users  14973168 Oct 22 20:04 fort.3.pe046
-rw-r--r-- 1 felipe users  14973168 Oct 22 20:04 fort.3.pe047
-rw-r--r-- 1 felipe users  14973168 Oct 22 20:04 fort.3.pe048
-rw-r--r-- 1 felipe users  14973168 Oct 22 20:04 fort.3.pe049
-rw-r--r-- 1 felipe users  14973168 Oct 22 20:04 fort.3.pe050
-rw-r--r-- 1 felipe users  14973168 Oct 22 20:04 fort.3.pe051
-rw-r--r-- 1 felipe users  14973168 Oct 22 20:04 fort.3.pe052
-rw-r--r-- 1 felipe users  14973168 Oct 22 20:04 fort.3.pe053
-rw-r--r-- 1 felipe users  14973168 Oct 22 20:04 fort.3.pe054
-rw-r--r-- 1 felipe users  14973168 Oct 22 20:04 fort.3.pe055
-rw-r--r-- 1 felipe users  14973168 Oct 22 20:04 fort.3.pe056
-rw-r--r-- 1 felipe users  14973168 Oct 22 20:04 fort.3.pe057
-rw-r--r-- 1 felipe users  14973168 Oct 22 20:04 fort.3.pe058
-rw-r--r-- 1 felipe users  14973168 Oct 22 20:04 fort.3.pe059
-rw-r--r-- 1 felipe users  14973168 Oct 22 20:04 fort.3.pe060
-rw-r--r-- 1 felipe users  14973168 Oct 22 20:04 fort.3.pe061
-rw-r--r-- 1 felipe users  14973168 Oct 22 20:04 fort.3.pe062
-rw-r--r-- 1 felipe users  14973168 Oct 22 20:04 fort.3.pe063
-rw-r--r-- 1 felipe users  14973168 Oct 22 20:04 fort.3.pe064
-rw-r--r-- 1 felipe users  14973168 Oct 22 20:04 fort.3.pe065
-rw-r--r-- 1 felipe users  14973168 Oct 22 20:04 fort.3.pe066
-rw-r--r-- 1 felipe users  14973168 Oct 22 20:04 fort.3.pe067
-rw-r--r-- 1 felipe users  14973168 Oct 22 20:04 fort.3.pe068
-rw-r--r-- 1 felipe users  14973168 Oct 22 20:04 fort.3.pe069
-rw-r--r-- 1 felipe users  14973168 Oct 22 20:04 fort.3.pe070
-rw-r--r-- 1 felipe users  14973168 Oct 22 20:04 fort.3.pe071
-rw-r--r-- 1 felipe users  14973168 Oct 22 20:04 fort.3.pe072
-rw-r--r-- 1 felipe users  14973168 Oct 22 20:04 fort.3.pe073
-rw-r--r-- 1 felipe users  14973168 Oct 22 20:04 fort.3.pe074
-rw-r--r-- 1 felipe users  14973168 Oct 22 20:04 fort.3.pe075
-rw-r--r-- 1 felipe users  14973168 Oct 22 20:04 fort.3.pe076
-rw-r--r-- 1 felipe users  14973168 Oct 22 20:04 fort.3.pe077
-rw-r--r-- 1 felipe users  14973168 Oct 22 20:04 fort.3.pe078
-rw-r--r-- 1 felipe users  14973168 Oct 22 20:04 fort.3.pe079
-rw-r--r-- 1 felipe users  14973168 Oct 22 20:04 fort.3.pe080
-rw-r--r-- 1 felipe users  14973168 Oct 22 20:04 fort.3.pe081
-rw-r--r-- 1 felipe users  14973168 Oct 22 20:04 fort.3.pe082
-rw-r--r-- 1 felipe users  14973168 Oct 22 20:04 fort.3.pe083
-rw-r--r-- 1 felipe users  14973168 Oct 22 20:04 fort.3.pe084
-rw-r--r-- 1 felipe users  14973168 Oct 22 20:04 fort.3.pe085
-rw-r--r-- 1 felipe users  14973168 Oct 22 20:04 fort.3.pe086
-rw-r--r-- 1 felipe users  14973168 Oct 22 20:04 fort.3.pe087
-rw-r--r-- 1 felipe users  14973168 Oct 22 20:04 fort.3.pe088
-rw-r--r-- 1 felipe users  14973168 Oct 22 20:04 fort.3.pe089
-rw-r--r-- 1 felipe users  14973168 Oct 22 20:04 fort.3.pe090
-rw-r--r-- 1 felipe users  14973168 Oct 22 20:04 fort.3.pe091
-rw-r--r-- 1 felipe users  14973168 Oct 22 20:04 fort.3.pe092
-rw-r--r-- 1 felipe users  14973168 Oct 22 20:04 fort.3.pe093
-rw-r--r-- 1 felipe users  14973168 Oct 22 20:04 fort.3.pe094
-rw-r--r-- 1 felipe users  14973168 Oct 22 20:04 fort.3.pe095
-rw-r--r-- 1 felipe users  14973168 Oct 22 20:04 fort.3.pe096
-rw-r--r-- 1 felipe users  14973168 Oct 22 20:04 fort.3.pe097
-rw-r--r-- 1 felipe users  14973168 Oct 22 20:04 fort.3.pe098
-rw-r--r-- 1 felipe users  14973168 Oct 22 20:04 fort.3.pe099
-rw-r--r-- 1 felipe users  14973168 Oct 22 20:04 fort.3.pe100
-rw-r--r-- 1 felipe users  14973168 Oct 22 20:04 fort.3.pe101
-rw-r--r-- 1 felipe users  14973168 Oct 22 20:04 fort.3.pe102
-rw-r--r-- 1 felipe users  14973168 Oct 22 20:04 fort.3.pe103
-rw-r--r-- 1 felipe users  14973168 Oct 22 20:04 fort.3.pe104
-rw-r--r-- 1 felipe users  14973168 Oct 22 20:04 fort.3.pe105
-rw-r--r-- 1 felipe users  14973168 Oct 22 20:04 fort.3.pe106
-rw-r--r-- 1 felipe users  14973168 Oct 22 20:04 fort.3.pe107
-rw-r--r-- 1 felipe users  14973168 Oct 22 20:04 fort.3.pe108
-rw-r--r-- 1 felipe users  14973168 Oct 22 20:04 fort.3.pe109
-rw-r--r-- 1 felipe users  14973168 Oct 22 20:04 fort.3.pe110
-rw-r--r-- 1 felipe users  14973168 Oct 22 20:04 fort.3.pe111
-rw-r--r-- 1 felipe users  14973168 Oct 22 20:04 fort.3.pe112
-rw-r--r-- 1 felipe users  14973168 Oct 22 20:04 fort.3.pe113
-rw-r--r-- 1 felipe users  14973168 Oct 22 20:04 fort.3.pe114
-rw-r--r-- 1 felipe users  14973168 Oct 22 20:04 fort.3.pe115
-rw-r--r-- 1 felipe users  14973168 Oct 22 20:04 fort.3.pe116
-rw-r--r-- 1 felipe users  14973168 Oct 22 20:04 fort.3.pe117
-rw-r--r-- 1 felipe users  14973168 Oct 22 20:04 fort.3.pe118
-rw-r--r-- 1 felipe users  14973168 Oct 22 20:04 fort.3.pe119
-rw-r--r-- 1 felipe users  14973168 Oct 22 20:04 fort.3.pe120
-rw-r--r-- 1 felipe users  14973168 Oct 22 20:04 fort.3.pe121
-rw-r--r-- 1 felipe users  14973168 Oct 22 20:04 fort.3.pe122
-rw-r--r-- 1 felipe users  14973168 Oct 22 20:04 fort.3.pe123
-rw-r--r-- 1 felipe users  14973168 Oct 22 20:04 fort.3.pe124
-rw-r--r-- 1 felipe users  14973168 Oct 22 20:04 fort.3.pe125
-rw-r--r-- 1 felipe users  14973168 Oct 22 20:04 fort.3.pe126
-rw-r--r-- 1 felipe users  14973168 Oct 22 20:04 fort.3.pe127
-rw-r--r-- 1 felipe users         0 Oct 22 20:04 fort.61.pe000
-rw-r--r-- 1 felipe users         0 Oct 22 20:04 fort.61.pe001
-rw-r--r-- 1 felipe users         0 Oct 22 20:04 fort.61.pe002
-rw-r--r-- 1 felipe users         0 Oct 22 20:04 fort.61.pe003
-rw-r--r-- 1 felipe users         0 Oct 22 20:04 fort.61.pe004
-rw-r--r-- 1 felipe users         0 Oct 22 20:04 fort.61.pe005
-rw-r--r-- 1 felipe users         0 Oct 22 20:04 fort.61.pe006
-rw-r--r-- 1 felipe users         0 Oct 22 20:04 fort.61.pe007
-rw-r--r-- 1 felipe users         0 Oct 22 20:04 fort.61.pe008
-rw-r--r-- 1 felipe users         0 Oct 22 20:04 fort.61.pe009
-rw-r--r-- 1 felipe users         0 Oct 22 20:04 fort.61.pe010
-rw-r--r-- 1 felipe users         0 Oct 22 20:04 fort.61.pe011
-rw-r--r-- 1 felipe users         0 Oct 22 20:04 fort.61.pe012
-rw-r--r-- 1 felipe users         0 Oct 22 20:04 fort.61.pe013
-rw-r--r-- 1 felipe users         0 Oct 22 20:04 fort.61.pe014
-rw-r--r-- 1 felipe users         0 Oct 22 20:04 fort.61.pe015
-rw-r--r-- 1 felipe users         0 Oct 22 20:04 fort.61.pe016
-rw-r--r-- 1 felipe users         0 Oct 22 20:04 fort.61.pe017
-rw-r--r-- 1 felipe users         0 Oct 22 20:04 fort.61.pe018
-rw-r--r-- 1 felipe users         0 Oct 22 20:04 fort.61.pe019
-rw-r--r-- 1 felipe users         0 Oct 22 20:04 fort.61.pe020
-rw-r--r-- 1 felipe users         0 Oct 22 20:04 fort.61.pe021
-rw-r--r-- 1 felipe users         0 Oct 22 20:04 fort.61.pe022
-rw-r--r-- 1 felipe users         0 Oct 22 20:04 fort.61.pe023
-rw-r--r-- 1 felipe users         0 Oct 22 20:04 fort.61.pe024
-rw-r--r-- 1 felipe users         0 Oct 22 20:04 fort.61.pe025
-rw-r--r-- 1 felipe users         0 Oct 22 20:04 fort.61.pe026
-rw-r--r-- 1 felipe users         0 Oct 22 20:04 fort.61.pe027
-rw-r--r-- 1 felipe users         0 Oct 22 20:04 fort.61.pe028
-rw-r--r-- 1 felipe users         0 Oct 22 20:04 fort.61.pe029
-rw-r--r-- 1 felipe users         0 Oct 22 20:04 fort.61.pe030
-rw-r--r-- 1 felipe users         0 Oct 22 20:04 fort.61.pe031
-rw-r--r-- 1 felipe users         0 Oct 22 20:04 fort.61.pe032
-rw-r--r-- 1 felipe users         0 Oct 22 20:04 fort.61.pe033
-rw-r--r-- 1 felipe users         0 Oct 22 20:04 fort.61.pe034
-rw-r--r-- 1 felipe users         0 Oct 22 20:04 fort.61.pe035
-rw-r--r-- 1 felipe users         0 Oct 22 20:04 fort.61.pe036
-rw-r--r-- 1 felipe users         0 Oct 22 20:04 fort.61.pe037
-rw-r--r-- 1 felipe users         0 Oct 22 20:04 fort.61.pe038
-rw-r--r-- 1 felipe users         0 Oct 22 20:04 fort.61.pe039
-rw-r--r-- 1 felipe users         0 Oct 22 20:04 fort.61.pe040
-rw-r--r-- 1 felipe users         0 Oct 22 20:04 fort.61.pe041
-rw-r--r-- 1 felipe users         0 Oct 22 20:04 fort.61.pe042
-rw-r--r-- 1 felipe users         0 Oct 22 20:04 fort.61.pe043
-rw-r--r-- 1 felipe users         0 Oct 22 20:04 fort.61.pe044
-rw-r--r-- 1 felipe users         0 Oct 22 20:04 fort.61.pe045
-rw-r--r-- 1 felipe users         0 Oct 22 20:04 fort.61.pe046
-rw-r--r-- 1 felipe users         0 Oct 22 20:04 fort.61.pe047
-rw-r--r-- 1 felipe users         0 Oct 22 20:04 fort.61.pe048
-rw-r--r-- 1 felipe users         0 Oct 22 20:04 fort.61.pe049
-rw-r--r-- 1 felipe users         0 Oct 22 20:04 fort.61.pe050
-rw-r--r-- 1 felipe users         0 Oct 22 20:04 fort.61.pe051
-rw-r--r-- 1 felipe users         0 Oct 22 20:04 fort.61.pe052
-rw-r--r-- 1 felipe users         0 Oct 22 20:04 fort.61.pe053
-rw-r--r-- 1 felipe users         0 Oct 22 20:04 fort.61.pe054
-rw-r--r-- 1 felipe users         0 Oct 22 20:04 fort.61.pe055
-rw-r--r-- 1 felipe users         0 Oct 22 20:04 fort.61.pe056
-rw-r--r-- 1 felipe users         0 Oct 22 20:04 fort.61.pe057
-rw-r--r-- 1 felipe users         0 Oct 22 20:04 fort.61.pe058
-rw-r--r-- 1 felipe users         0 Oct 22 20:04 fort.61.pe059
-rw-r--r-- 1 felipe users         0 Oct 22 20:04 fort.61.pe060
-rw-r--r-- 1 felipe users         0 Oct 22 20:04 fort.61.pe061
-rw-r--r-- 1 felipe users         0 Oct 22 20:04 fort.61.pe062
-rw-r--r-- 1 felipe users         0 Oct 22 20:04 fort.61.pe063
-rw-r--r-- 1 felipe users         0 Oct 22 20:04 fort.61.pe064
-rw-r--r-- 1 felipe users         0 Oct 22 20:04 fort.61.pe065
-rw-r--r-- 1 felipe users         0 Oct 22 20:04 fort.61.pe066
-rw-r--r-- 1 felipe users         0 Oct 22 20:04 fort.61.pe067
-rw-r--r-- 1 felipe users         0 Oct 22 20:04 fort.61.pe068
-rw-r--r-- 1 felipe users         0 Oct 22 20:04 fort.61.pe069
-rw-r--r-- 1 felipe users         0 Oct 22 20:04 fort.61.pe070
-rw-r--r-- 1 felipe users         0 Oct 22 20:04 fort.61.pe071
-rw-r--r-- 1 felipe users         0 Oct 22 20:04 fort.61.pe072
-rw-r--r-- 1 felipe users         0 Oct 22 20:04 fort.61.pe073
-rw-r--r-- 1 felipe users         0 Oct 22 20:04 fort.61.pe074
-rw-r--r-- 1 felipe users         0 Oct 22 20:04 fort.61.pe075
-rw-r--r-- 1 felipe users         0 Oct 22 20:04 fort.61.pe076
-rw-r--r-- 1 felipe users         0 Oct 22 20:04 fort.61.pe077
-rw-r--r-- 1 felipe users         0 Oct 22 20:04 fort.61.pe078
-rw-r--r-- 1 felipe users         0 Oct 22 20:04 fort.61.pe079
-rw-r--r-- 1 felipe users         0 Oct 22 20:04 fort.61.pe080
-rw-r--r-- 1 felipe users         0 Oct 22 20:04 fort.61.pe081
-rw-r--r-- 1 felipe users         0 Oct 22 20:04 fort.61.pe082
-rw-r--r-- 1 felipe users         0 Oct 22 20:04 fort.61.pe083
-rw-r--r-- 1 felipe users         0 Oct 22 20:04 fort.61.pe084
-rw-r--r-- 1 felipe users         0 Oct 22 20:04 fort.61.pe085
-rw-r--r-- 1 felipe users         0 Oct 22 20:04 fort.61.pe086
-rw-r--r-- 1 felipe users         0 Oct 22 20:04 fort.61.pe087
-rw-r--r-- 1 felipe users         0 Oct 22 20:04 fort.61.pe088
-rw-r--r-- 1 felipe users         0 Oct 22 20:04 fort.61.pe089
-rw-r--r-- 1 felipe users         0 Oct 22 20:04 fort.61.pe090
-rw-r--r-- 1 felipe users         0 Oct 22 20:04 fort.61.pe091
-rw-r--r-- 1 felipe users         0 Oct 22 20:04 fort.61.pe092
-rw-r--r-- 1 felipe users         0 Oct 22 20:04 fort.61.pe093
-rw-r--r-- 1 felipe users         0 Oct 22 20:04 fort.61.pe094
-rw-r--r-- 1 felipe users         0 Oct 22 20:04 fort.61.pe095
-rw-r--r-- 1 felipe users         0 Oct 22 20:04 fort.61.pe096
-rw-r--r-- 1 felipe users         0 Oct 22 20:04 fort.61.pe097
-rw-r--r-- 1 felipe users         0 Oct 22 20:04 fort.61.pe098
-rw-r--r-- 1 felipe users         0 Oct 22 20:04 fort.61.pe099
-rw-r--r-- 1 felipe users         0 Oct 22 20:04 fort.61.pe100
-rw-r--r-- 1 felipe users         0 Oct 22 20:04 fort.61.pe101
-rw-r--r-- 1 felipe users         0 Oct 22 20:04 fort.61.pe102
-rw-r--r-- 1 felipe users         0 Oct 22 20:04 fort.61.pe103
-rw-r--r-- 1 felipe users         0 Oct 22 20:04 fort.61.pe104
-rw-r--r-- 1 felipe users         0 Oct 22 20:04 fort.61.pe105
-rw-r--r-- 1 felipe users         0 Oct 22 20:04 fort.61.pe106
-rw-r--r-- 1 felipe users         0 Oct 22 20:04 fort.61.pe107
-rw-r--r-- 1 felipe users         0 Oct 22 20:04 fort.61.pe108
-rw-r--r-- 1 felipe users         0 Oct 22 20:04 fort.61.pe109
-rw-r--r-- 1 felipe users         0 Oct 22 20:04 fort.61.pe110
-rw-r--r-- 1 felipe users         0 Oct 22 20:04 fort.61.pe111
-rw-r--r-- 1 felipe users         0 Oct 22 20:04 fort.61.pe112
-rw-r--r-- 1 felipe users         0 Oct 22 20:04 fort.61.pe113
-rw-r--r-- 1 felipe users         0 Oct 22 20:04 fort.61.pe114
-rw-r--r-- 1 felipe users         0 Oct 22 20:04 fort.61.pe115
-rw-r--r-- 1 felipe users         0 Oct 22 20:04 fort.61.pe116
-rw-r--r-- 1 felipe users         0 Oct 22 20:04 fort.61.pe117
-rw-r--r-- 1 felipe users         0 Oct 22 20:04 fort.61.pe118
-rw-r--r-- 1 felipe users         0 Oct 22 20:04 fort.61.pe119
-rw-r--r-- 1 felipe users         0 Oct 22 20:04 fort.61.pe120
-rw-r--r-- 1 felipe users         0 Oct 22 20:04 fort.61.pe121
-rw-r--r-- 1 felipe users         0 Oct 22 20:04 fort.61.pe122
-rw-r--r-- 1 felipe users         0 Oct 22 20:04 fort.61.pe123
-rw-r--r-- 1 felipe users         0 Oct 22 20:04 fort.61.pe124
-rw-r--r-- 1 felipe users         0 Oct 22 20:04 fort.61.pe125
-rw-r--r-- 1 felipe users         0 Oct 22 20:04 fort.61.pe126
-rw-r--r-- 1 felipe users         0 Oct 22 20:04 fort.61.pe127
-rw-r--r-- 1 felipe users         0 Oct 22 20:04 fort.62.pe000
-rw-r--r-- 1 felipe users         0 Oct 22 20:04 fort.62.pe001
-rw-r--r-- 1 felipe users         0 Oct 22 20:04 fort.62.pe002
-rw-r--r-- 1 felipe users         0 Oct 22 20:04 fort.62.pe003
-rw-r--r-- 1 felipe users         0 Oct 22 20:04 fort.62.pe004
-rw-r--r-- 1 felipe users         0 Oct 22 20:04 fort.62.pe005
-rw-r--r-- 1 felipe users         0 Oct 22 20:04 fort.62.pe006
-rw-r--r-- 1 felipe users         0 Oct 22 20:04 fort.62.pe007
-rw-r--r-- 1 felipe users         0 Oct 22 20:04 fort.62.pe008
-rw-r--r-- 1 felipe users         0 Oct 22 20:04 fort.62.pe009
-rw-r--r-- 1 felipe users         0 Oct 22 20:04 fort.62.pe010
-rw-r--r-- 1 felipe users         0 Oct 22 20:04 fort.62.pe011
-rw-r--r-- 1 felipe users         0 Oct 22 20:04 fort.62.pe012
-rw-r--r-- 1 felipe users         0 Oct 22 20:04 fort.62.pe013
-rw-r--r-- 1 felipe users         0 Oct 22 20:04 fort.62.pe014
-rw-r--r-- 1 felipe users         0 Oct 22 20:04 fort.62.pe015
-rw-r--r-- 1 felipe users         0 Oct 22 20:04 fort.62.pe016
-rw-r--r-- 1 felipe users         0 Oct 22 20:04 fort.62.pe017
-rw-r--r-- 1 felipe users         0 Oct 22 20:04 fort.62.pe018
-rw-r--r-- 1 felipe users         0 Oct 22 20:04 fort.62.pe019
-rw-r--r-- 1 felipe users         0 Oct 22 20:04 fort.62.pe020
-rw-r--r-- 1 felipe users         0 Oct 22 20:04 fort.62.pe021
-rw-r--r-- 1 felipe users         0 Oct 22 20:04 fort.62.pe022
-rw-r--r-- 1 felipe users         0 Oct 22 20:04 fort.62.pe023
-rw-r--r-- 1 felipe users         0 Oct 22 20:04 fort.62.pe024
-rw-r--r-- 1 felipe users         0 Oct 22 20:04 fort.62.pe025
-rw-r--r-- 1 felipe users         0 Oct 22 20:04 fort.62.pe026
-rw-r--r-- 1 felipe users         0 Oct 22 20:04 fort.62.pe027
-rw-r--r-- 1 felipe users         0 Oct 22 20:04 fort.62.pe028
-rw-r--r-- 1 felipe users         0 Oct 22 20:04 fort.62.pe029
-rw-r--r-- 1 felipe users         0 Oct 22 20:04 fort.62.pe030
-rw-r--r-- 1 felipe users         0 Oct 22 20:04 fort.62.pe031
-rw-r--r-- 1 felipe users         0 Oct 22 20:04 fort.62.pe032
-rw-r--r-- 1 felipe users         0 Oct 22 20:04 fort.62.pe033
-rw-r--r-- 1 felipe users         0 Oct 22 20:04 fort.62.pe034
-rw-r--r-- 1 felipe users         0 Oct 22 20:04 fort.62.pe035
-rw-r--r-- 1 felipe users         0 Oct 22 20:04 fort.62.pe036
-rw-r--r-- 1 felipe users         0 Oct 22 20:04 fort.62.pe037
-rw-r--r-- 1 felipe users         0 Oct 22 20:04 fort.62.pe038
-rw-r--r-- 1 felipe users         0 Oct 22 20:04 fort.62.pe039
-rw-r--r-- 1 felipe users         0 Oct 22 20:04 fort.62.pe040
-rw-r--r-- 1 felipe users         0 Oct 22 20:04 fort.62.pe041
-rw-r--r-- 1 felipe users         0 Oct 22 20:04 fort.62.pe042
-rw-r--r-- 1 felipe users         0 Oct 22 20:04 fort.62.pe043
-rw-r--r-- 1 felipe users         0 Oct 22 20:04 fort.62.pe044
-rw-r--r-- 1 felipe users         0 Oct 22 20:04 fort.62.pe045
-rw-r--r-- 1 felipe users         0 Oct 22 20:04 fort.62.pe046
-rw-r--r-- 1 felipe users         0 Oct 22 20:04 fort.62.pe047
-rw-r--r-- 1 felipe users         0 Oct 22 20:04 fort.62.pe048
-rw-r--r-- 1 felipe users         0 Oct 22 20:04 fort.62.pe049
-rw-r--r-- 1 felipe users         0 Oct 22 20:04 fort.62.pe050
-rw-r--r-- 1 felipe users         0 Oct 22 20:04 fort.62.pe051
-rw-r--r-- 1 felipe users         0 Oct 22 20:04 fort.62.pe052
-rw-r--r-- 1 felipe users         0 Oct 22 20:04 fort.62.pe053
-rw-r--r-- 1 felipe users         0 Oct 22 20:04 fort.62.pe054
-rw-r--r-- 1 felipe users         0 Oct 22 20:04 fort.62.pe055
-rw-r--r-- 1 felipe users         0 Oct 22 20:04 fort.62.pe056
-rw-r--r-- 1 felipe users         0 Oct 22 20:04 fort.62.pe057
-rw-r--r-- 1 felipe users         0 Oct 22 20:04 fort.62.pe058
-rw-r--r-- 1 felipe users         0 Oct 22 20:04 fort.62.pe059
[...]
-rw-r--r-- 1 felipe users         0 Oct 22 20:04 fort.75.pe078
-rw-r--r-- 1 felipe users         0 Oct 22 20:04 fort.75.pe079
-rw-r--r-- 1 felipe users         0 Oct 22 20:04 fort.75.pe080
-rw-r--r-- 1 felipe users         0 Oct 22 20:04 fort.75.pe081
-rw-r--r-- 1 felipe users         0 Oct 22 20:04 fort.75.pe082
-rw-r--r-- 1 felipe users         0 Oct 22 20:04 fort.75.pe083
-rw-r--r-- 1 felipe users         0 Oct 22 20:04 fort.75.pe084
-rw-r--r-- 1 felipe users         0 Oct 22 20:04 fort.75.pe085
-rw-r--r-- 1 felipe users         0 Oct 22 20:04 fort.75.pe086
-rw-r--r-- 1 felipe users         0 Oct 22 20:04 fort.75.pe087
-rw-r--r-- 1 felipe users         0 Oct 22 20:04 fort.75.pe088
-rw-r--r-- 1 felipe users         0 Oct 22 20:04 fort.75.pe089
-rw-r--r-- 1 felipe users         0 Oct 22 20:04 fort.75.pe090
-rw-r--r-- 1 felipe users         0 Oct 22 20:04 fort.75.pe091
-rw-r--r-- 1 felipe users         0 Oct 22 20:04 fort.75.pe092
-rw-r--r-- 1 felipe users         0 Oct 22 20:04 fort.75.pe093
-rw-r--r-- 1 felipe users         0 Oct 22 20:04 fort.75.pe094
-rw-r--r-- 1 felipe users         0 Oct 22 20:04 fort.75.pe095
-rw-r--r-- 1 felipe users         0 Oct 22 20:04 fort.75.pe096
-rw-r--r-- 1 felipe users         0 Oct 22 20:04 fort.75.pe097
-rw-r--r-- 1 felipe users         0 Oct 22 20:04 fort.75.pe098
-rw-r--r-- 1 felipe users         0 Oct 22 20:04 fort.75.pe099
-rw-r--r-- 1 felipe users         0 Oct 22 20:04 fort.75.pe100
-rw-r--r-- 1 felipe users         0 Oct 22 20:04 fort.75.pe101
-rw-r--r-- 1 felipe users         0 Oct 22 20:04 fort.75.pe102
-rw-r--r-- 1 felipe users         0 Oct 22 20:04 fort.75.pe103
-rw-r--r-- 1 felipe users         0 Oct 22 20:04 fort.75.pe104
-rw-r--r-- 1 felipe users         0 Oct 22 20:04 fort.75.pe105
-rw-r--r-- 1 felipe users         0 Oct 22 20:04 fort.75.pe106
-rw-r--r-- 1 felipe users         0 Oct 22 20:04 fort.75.pe107
-rw-r--r-- 1 felipe users         0 Oct 22 20:04 fort.75.pe108
-rw-r--r-- 1 felipe users         0 Oct 22 20:04 fort.75.pe109
-rw-r--r-- 1 felipe users         0 Oct 22 20:04 fort.75.pe110
-rw-r--r-- 1 felipe users         0 Oct 22 20:04 fort.75.pe111
-rw-r--r-- 1 felipe users         0 Oct 22 20:04 fort.75.pe112
-rw-r--r-- 1 felipe users         0 Oct 22 20:04 fort.75.pe113
-rw-r--r-- 1 felipe users         0 Oct 22 20:04 fort.75.pe114
-rw-r--r-- 1 felipe users         0 Oct 22 20:04 fort.75.pe115
-rw-r--r-- 1 felipe users         0 Oct 22 20:04 fort.75.pe116
-rw-r--r-- 1 felipe users         0 Oct 22 20:04 fort.75.pe117
-rw-r--r-- 1 felipe users         0 Oct 22 20:04 fort.75.pe118
-rw-r--r-- 1 felipe users         0 Oct 22 20:04 fort.75.pe119
-rw-r--r-- 1 felipe users         0 Oct 22 20:04 fort.75.pe120
-rw-r--r-- 1 felipe users         0 Oct 22 20:04 fort.75.pe121
-rw-r--r-- 1 felipe users         0 Oct 22 20:04 fort.75.pe122
-rw-r--r-- 1 felipe users         0 Oct 22 20:04 fort.75.pe123
-rw-r--r-- 1 felipe users         0 Oct 22 20:04 fort.75.pe124
-rw-r--r-- 1 felipe users         0 Oct 22 20:04 fort.75.pe125
-rw-r--r-- 1 felipe users         0 Oct 22 20:04 fort.75.pe126
-rw-r--r-- 1 felipe users         0 Oct 22 20:04 fort.75.pe127
-rw-r--r-- 1 felipe users         0 Oct 22 20:04 fort.77.pe000
-rw-r--r-- 1 felipe users         0 Oct 22 20:04 fort.77.pe001
-rw-r--r-- 1 felipe users         0 Oct 22 20:04 fort.77.pe002
-rw-r--r-- 1 felipe users         0 Oct 22 20:04 fort.77.pe003
-rw-r--r-- 1 felipe users         0 Oct 22 20:04 fort.77.pe004
-rw-r--r-- 1 felipe users         0 Oct 22 20:04 fort.77.pe005
-rw-r--r-- 1 felipe users         0 Oct 22 20:04 fort.77.pe006
-rw-r--r-- 1 felipe users         0 Oct 22 20:04 fort.77.pe007
-rw-r--r-- 1 felipe users         0 Oct 22 20:04 fort.77.pe008
-rw-r--r-- 1 felipe users         0 Oct 22 20:04 fort.77.pe009
-rw-r--r-- 1 felipe users         0 Oct 22 20:04 fort.77.pe010
-rw-r--r-- 1 felipe users         0 Oct 22 20:04 fort.77.pe011
-rw-r--r-- 1 felipe users         0 Oct 22 20:04 fort.77.pe012
-rw-r--r-- 1 felipe users         0 Oct 22 20:04 fort.77.pe013
-rw-r--r-- 1 felipe users         0 Oct 22 20:04 fort.77.pe014
-rw-r--r-- 1 felipe users         0 Oct 22 20:04 fort.77.pe015
-rw-r--r-- 1 felipe users         0 Oct 22 20:04 fort.77.pe016
-rw-r--r-- 1 felipe users         0 Oct 22 20:04 fort.77.pe017
-rw-r--r-- 1 felipe users         0 Oct 22 20:04 fort.77.pe018
-rw-r--r-- 1 felipe users         0 Oct 22 20:04 fort.77.pe019
-rw-r--r-- 1 felipe users         0 Oct 22 20:04 fort.77.pe020
-rw-r--r-- 1 felipe users         0 Oct 22 20:04 fort.77.pe021
-rw-r--r-- 1 felipe users         0 Oct 22 20:04 fort.77.pe022
-rw-r--r-- 1 felipe users         0 Oct 22 20:04 fort.77.pe023
-rw-r--r-- 1 felipe users         0 Oct 22 20:04 fort.77.pe024
-rw-r--r-- 1 felipe users         0 Oct 22 20:04 fort.77.pe025
-rw-r--r-- 1 felipe users         0 Oct 22 20:04 fort.77.pe026
-rw-r--r-- 1 felipe users         0 Oct 22 20:04 fort.77.pe027
-rw-r--r-- 1 felipe users         0 Oct 22 20:04 fort.77.pe028
-rw-r--r-- 1 felipe users         0 Oct 22 20:04 fort.77.pe029
-rw-r--r-- 1 felipe users         0 Oct 22 20:04 fort.77.pe030
-rw-r--r-- 1 felipe users         0 Oct 22 20:04 fort.77.pe031
-rw-r--r-- 1 felipe users         0 Oct 22 20:04 fort.77.pe032
-rw-r--r-- 1 felipe users         0 Oct 22 20:04 fort.77.pe033
-rw-r--r-- 1 felipe users         0 Oct 22 20:04 fort.77.pe034
-rw-r--r-- 1 felipe users         0 Oct 22 20:04 fort.77.pe035
-rw-r--r-- 1 felipe users         0 Oct 22 20:04 fort.77.pe036
-rw-r--r-- 1 felipe users         0 Oct 22 20:04 fort.77.pe037
-rw-r--r-- 1 felipe users         0 Oct 22 20:04 fort.77.pe038
-rw-r--r-- 1 felipe users         0 Oct 22 20:04 fort.77.pe039
-rw-r--r-- 1 felipe users         0 Oct 22 20:04 fort.77.pe040
-rw-r--r-- 1 felipe users         0 Oct 22 20:04 fort.77.pe041
-rw-r--r-- 1 felipe users         0 Oct 22 20:04 fort.77.pe042
-rw-r--r-- 1 felipe users         0 Oct 22 20:04 fort.77.pe043
-rw-r--r-- 1 felipe users         0 Oct 22 20:04 fort.77.pe044
-rw-r--r-- 1 felipe users         0 Oct 22 20:04 fort.77.pe045
-rw-r--r-- 1 felipe users         0 Oct 22 20:04 fort.77.pe046
-rw-r--r-- 1 felipe users         0 Oct 22 20:04 fort.77.pe047
-rw-r--r-- 1 felipe users         0 Oct 22 20:04 fort.77.pe048
-rw-r--r-- 1 felipe users         0 Oct 22 20:04 fort.77.pe049
-rw-r--r-- 1 felipe users         0 Oct 22 20:04 fort.77.pe050
-rw-r--r-- 1 felipe users         0 Oct 22 20:04 fort.77.pe051
-rw-r--r-- 1 felipe users         0 Oct 22 20:04 fort.77.pe052
-rw-r--r-- 1 felipe users         0 Oct 22 20:04 fort.77.pe053
-rw-r--r-- 1 felipe users         0 Oct 22 20:04 fort.77.pe054
-rw-r--r-- 1 felipe users         0 Oct 22 20:04 fort.77.pe055
-rw-r--r-- 1 felipe users         0 Oct 22 20:04 fort.77.pe056
-rw-r--r-- 1 felipe users         0 Oct 22 20:04 fort.77.pe057
-rw-r--r-- 1 felipe users         0 Oct 22 20:04 fort.77.pe058
-rw-r--r-- 1 felipe users         0 Oct 22 20:04 fort.77.pe059
-rw-r--r-- 1 felipe users         0 Oct 22 20:04 fort.77.pe060
-rw-r--r-- 1 felipe users         0 Oct 22 20:04 fort.77.pe061
-rw-r--r-- 1 felipe users         0 Oct 22 20:04 fort.77.pe062
-rw-r--r-- 1 felipe users         0 Oct 22 20:04 fort.77.pe063
-rw-r--r-- 1 felipe users         0 Oct 22 20:04 fort.77.pe064
-rw-r--r-- 1 felipe users         0 Oct 22 20:04 fort.77.pe065
-rw-r--r-- 1 felipe users         0 Oct 22 20:04 fort.77.pe066
-rw-r--r-- 1 felipe users         0 Oct 22 20:04 fort.77.pe067
-rw-r--r-- 1 felipe users         0 Oct 22 20:04 fort.77.pe068
-rw-r--r-- 1 felipe users         0 Oct 22 20:04 fort.77.pe069
-rw-r--r-- 1 felipe users         0 Oct 22 20:04 fort.77.pe070
-rw-r--r-- 1 felipe users         0 Oct 22 20:04 fort.77.pe071
-rw-r--r-- 1 felipe users         0 Oct 22 20:04 fort.77.pe072
-rw-r--r-- 1 felipe users         0 Oct 22 20:04 fort.77.pe073
-rw-r--r-- 1 felipe users         0 Oct 22 20:04 fort.77.pe074
-rw-r--r-- 1 felipe users         0 Oct 22 20:04 fort.77.pe075
-rw-r--r-- 1 felipe users         0 Oct 22 20:04 fort.77.pe076
-rw-r--r-- 1 felipe users         0 Oct 22 20:04 fort.77.pe077
-rw-r--r-- 1 felipe users         0 Oct 22 20:04 fort.77.pe078
-rw-r--r-- 1 felipe users         0 Oct 22 20:04 fort.77.pe079
-rw-r--r-- 1 felipe users         0 Oct 22 20:04 fort.77.pe080
-rw-r--r-- 1 felipe users         0 Oct 22 20:04 fort.77.pe081
-rw-r--r-- 1 felipe users         0 Oct 22 20:04 fort.77.pe082
-rw-r--r-- 1 felipe users         0 Oct 22 20:04 fort.77.pe083
-rw-r--r-- 1 felipe users         0 Oct 22 20:04 fort.77.pe084
-rw-r--r-- 1 felipe users         0 Oct 22 20:04 fort.77.pe085
-rw-r--r-- 1 felipe users         0 Oct 22 20:04 fort.77.pe086
-rw-r--r-- 1 felipe users         0 Oct 22 20:04 fort.77.pe087
-rw-r--r-- 1 felipe users         0 Oct 22 20:04 fort.77.pe088
-rw-r--r-- 1 felipe users         0 Oct 22 20:04 fort.77.pe089
-rw-r--r-- 1 felipe users         0 Oct 22 20:04 fort.77.pe090
-rw-r--r-- 1 felipe users         0 Oct 22 20:04 fort.77.pe091
-rw-r--r-- 1 felipe users         0 Oct 22 20:04 fort.77.pe092
-rw-r--r-- 1 felipe users         0 Oct 22 20:04 fort.77.pe093
-rw-r--r-- 1 felipe users         0 Oct 22 20:04 fort.77.pe094
-rw-r--r-- 1 felipe users         0 Oct 22 20:04 fort.77.pe095
-rw-r--r-- 1 felipe users         0 Oct 22 20:04 fort.77.pe096
-rw-r--r-- 1 felipe users         0 Oct 22 20:04 fort.77.pe097
-rw-r--r-- 1 felipe users         0 Oct 22 20:04 fort.77.pe098
-rw-r--r-- 1 felipe users         0 Oct 22 20:04 fort.77.pe099
-rw-r--r-- 1 felipe users         0 Oct 22 20:04 fort.77.pe100
-rw-r--r-- 1 felipe users         0 Oct 22 20:04 fort.77.pe101
-rw-r--r-- 1 felipe users         0 Oct 22 20:04 fort.77.pe102
-rw-r--r-- 1 felipe users         0 Oct 22 20:04 fort.77.pe103
-rw-r--r-- 1 felipe users         0 Oct 22 20:04 fort.77.pe104
-rw-r--r-- 1 felipe users         0 Oct 22 20:04 fort.77.pe105
-rw-r--r-- 1 felipe users         0 Oct 22 20:04 fort.77.pe106
-rw-r--r-- 1 felipe users         0 Oct 22 20:04 fort.77.pe107
-rw-r--r-- 1 felipe users         0 Oct 22 20:04 fort.77.pe108
-rw-r--r-- 1 felipe users         0 Oct 22 20:04 fort.77.pe109
-rw-r--r-- 1 felipe users         0 Oct 22 20:04 fort.77.pe110
-rw-r--r-- 1 felipe users         0 Oct 22 20:04 fort.77.pe111
-rw-r--r-- 1 felipe users         0 Oct 22 20:04 fort.77.pe112
-rw-r--r-- 1 felipe users         0 Oct 22 20:04 fort.77.pe113
-rw-r--r-- 1 felipe users         0 Oct 22 20:04 fort.77.pe114
-rw-r--r-- 1 felipe users         0 Oct 22 20:04 fort.77.pe115
-rw-r--r-- 1 felipe users         0 Oct 22 20:04 fort.77.pe116
-rw-r--r-- 1 felipe users         0 Oct 22 20:04 fort.77.pe117
-rw-r--r-- 1 felipe users         0 Oct 22 20:04 fort.77.pe118
-rw-r--r-- 1 felipe users         0 Oct 22 20:04 fort.77.pe119
-rw-r--r-- 1 felipe users         0 Oct 22 20:04 fort.77.pe120
-rw-r--r-- 1 felipe users         0 Oct 22 20:04 fort.77.pe121
-rw-r--r-- 1 felipe users         0 Oct 22 20:04 fort.77.pe122
-rw-r--r-- 1 felipe users         0 Oct 22 20:04 fort.77.pe123
-rw-r--r-- 1 felipe users         0 Oct 22 20:04 fort.77.pe124
-rw-r--r-- 1 felipe users         0 Oct 22 20:04 fort.77.pe125
-rw-r--r-- 1 felipe users         0 Oct 22 20:04 fort.77.pe126
-rw-r--r-- 1 felipe users         0 Oct 22 20:04 fort.77.pe127
-rw-r--r-- 1 felipe users         0 Oct 22 20:04 fort.8.pe000
-rw-r--r-- 1 felipe users         0 Oct 22 20:04 fort.8.pe001
-rw-r--r-- 1 felipe users         0 Oct 22 20:04 fort.8.pe002
-rw-r--r-- 1 felipe users         0 Oct 22 20:04 fort.8.pe003
-rw-r--r-- 1 felipe users         0 Oct 22 20:04 fort.8.pe004
-rw-r--r-- 1 felipe users         0 Oct 22 20:04 fort.8.pe005
-rw-r--r-- 1 felipe users         0 Oct 22 20:04 fort.8.pe006
-rw-r--r-- 1 felipe users         0 Oct 22 20:04 fort.8.pe007
-rw-r--r-- 1 felipe users         0 Oct 22 20:04 fort.8.pe008
-rw-r--r-- 1 felipe users         0 Oct 22 20:04 fort.8.pe009
-rw-r--r-- 1 felipe users         0 Oct 22 20:04 fort.8.pe010
-rw-r--r-- 1 felipe users         0 Oct 22 20:04 fort.8.pe011
-rw-r--r-- 1 felipe users         0 Oct 22 20:04 fort.8.pe012
-rw-r--r-- 1 felipe users         0 Oct 22 20:04 fort.8.pe013
-rw-r--r-- 1 felipe users         0 Oct 22 20:04 fort.8.pe014
-rw-r--r-- 1 felipe users         0 Oct 22 20:04 fort.8.pe015
-rw-r--r-- 1 felipe users         0 Oct 22 20:04 fort.8.pe016
-rw-r--r-- 1 felipe users         0 Oct 22 20:04 fort.8.pe017
-rw-r--r-- 1 felipe users         0 Oct 22 20:04 fort.8.pe018
-rw-r--r-- 1 felipe users         0 Oct 22 20:04 fort.8.pe019
-rw-r--r-- 1 felipe users         0 Oct 22 20:04 fort.8.pe020
-rw-r--r-- 1 felipe users         0 Oct 22 20:04 fort.8.pe021
-rw-r--r-- 1 felipe users         0 Oct 22 20:04 fort.8.pe022
-rw-r--r-- 1 felipe users         0 Oct 22 20:04 fort.8.pe023
-rw-r--r-- 1 felipe users         0 Oct 22 20:04 fort.8.pe024
-rw-r--r-- 1 felipe users         0 Oct 22 20:04 fort.8.pe025
-rw-r--r-- 1 felipe users         0 Oct 22 20:04 fort.8.pe026
-rw-r--r-- 1 felipe users         0 Oct 22 20:04 fort.8.pe027
-rw-r--r-- 1 felipe users         0 Oct 22 20:04 fort.8.pe028
-rw-r--r-- 1 felipe users         0 Oct 22 20:04 fort.8.pe029
-rw-r--r-- 1 felipe users         0 Oct 22 20:04 fort.8.pe030
-rw-r--r-- 1 felipe users         0 Oct 22 20:04 fort.8.pe031
-rw-r--r-- 1 felipe users         0 Oct 22 20:04 fort.8.pe032
-rw-r--r-- 1 felipe users         0 Oct 22 20:04 fort.8.pe033
-rw-r--r-- 1 felipe users         0 Oct 22 20:04 fort.8.pe034
-rw-r--r-- 1 felipe users         0 Oct 22 20:04 fort.8.pe035
-rw-r--r-- 1 felipe users         0 Oct 22 20:04 fort.8.pe036
-rw-r--r-- 1 felipe users         0 Oct 22 20:04 fort.8.pe037
-rw-r--r-- 1 felipe users         0 Oct 22 20:04 fort.8.pe038
-rw-r--r-- 1 felipe users         0 Oct 22 20:04 fort.8.pe039
-rw-r--r-- 1 felipe users         0 Oct 22 20:04 fort.8.pe040
-rw-r--r-- 1 felipe users         0 Oct 22 20:04 fort.8.pe041
-rw-r--r-- 1 felipe users         0 Oct 22 20:04 fort.8.pe042
-rw-r--r-- 1 felipe users         0 Oct 22 20:04 fort.8.pe043
-rw-r--r-- 1 felipe users         0 Oct 22 20:04 fort.8.pe044
-rw-r--r-- 1 felipe users         0 Oct 22 20:04 fort.8.pe045
-rw-r--r-- 1 felipe users         0 Oct 22 20:04 fort.8.pe046
-rw-r--r-- 1 felipe users         0 Oct 22 20:04 fort.8.pe047
-rw-r--r-- 1 felipe users         0 Oct 22 20:04 fort.8.pe048
-rw-r--r-- 1 felipe users         0 Oct 22 20:04 fort.8.pe049
-rw-r--r-- 1 felipe users         0 Oct 22 20:04 fort.8.pe050
-rw-r--r-- 1 felipe users         0 Oct 22 20:04 fort.8.pe051
-rw-r--r-- 1 felipe users         0 Oct 22 20:04 fort.8.pe052
-rw-r--r-- 1 felipe users         0 Oct 22 20:04 fort.8.pe053
-rw-r--r-- 1 felipe users         0 Oct 22 20:04 fort.8.pe054
-rw-r--r-- 1 felipe users         0 Oct 22 20:04 fort.8.pe055
-rw-r--r-- 1 felipe users         0 Oct 22 20:04 fort.8.pe056
-rw-r--r-- 1 felipe users         0 Oct 22 20:04 fort.8.pe057
-rw-r--r-- 1 felipe users         0 Oct 22 20:04 fort.8.pe058
-rw-r--r-- 1 felipe users         0 Oct 22 20:04 fort.8.pe059
-rw-r--r-- 1 felipe users         0 Oct 22 20:04 fort.8.pe060
-rw-r--r-- 1 felipe users         0 Oct 22 20:04 fort.8.pe061
-rw-r--r-- 1 felipe users         0 Oct 22 20:04 fort.8.pe062
-rw-r--r-- 1 felipe users         0 Oct 22 20:04 fort.8.pe063
-rw-r--r-- 1 felipe users         0 Oct 22 20:04 fort.8.pe064
-rw-r--r-- 1 felipe users         0 Oct 22 20:04 fort.8.pe065
-rw-r--r-- 1 felipe users         0 Oct 22 20:04 fort.8.pe066
-rw-r--r-- 1 felipe users         0 Oct 22 20:04 fort.8.pe067
-rw-r--r-- 1 felipe users         0 Oct 22 20:04 fort.8.pe068
-rw-r--r-- 1 felipe users         0 Oct 22 20:04 fort.8.pe069
-rw-r--r-- 1 felipe users         0 Oct 22 20:04 fort.8.pe070
-rw-r--r-- 1 felipe users         0 Oct 22 20:04 fort.8.pe071
-rw-r--r-- 1 felipe users         0 Oct 22 20:04 fort.8.pe072
-rw-r--r-- 1 felipe users         0 Oct 22 20:04 fort.8.pe073
-rw-r--r-- 1 felipe users         0 Oct 22 20:04 fort.8.pe074
-rw-r--r-- 1 felipe users         0 Oct 22 20:04 fort.8.pe075
-rw-r--r-- 1 felipe users         0 Oct 22 20:04 fort.8.pe076
-rw-r--r-- 1 felipe users         0 Oct 22 20:04 fort.8.pe077
-rw-r--r-- 1 felipe users         0 Oct 22 20:04 fort.8.pe078
-rw-r--r-- 1 felipe users         0 Oct 22 20:04 fort.8.pe079
-rw-r--r-- 1 felipe users         0 Oct 22 20:04 fort.8.pe080
-rw-r--r-- 1 felipe users         0 Oct 22 20:04 fort.8.pe081
-rw-r--r-- 1 felipe users         0 Oct 22 20:04 fort.8.pe082
-rw-r--r-- 1 felipe users         0 Oct 22 20:04 fort.8.pe083
-rw-r--r-- 1 felipe users         0 Oct 22 20:04 fort.8.pe084
-rw-r--r-- 1 felipe users         0 Oct 22 20:04 fort.8.pe085
-rw-r--r-- 1 felipe users         0 Oct 22 20:04 fort.8.pe086
-rw-r--r-- 1 felipe users         0 Oct 22 20:04 fort.8.pe087
-rw-r--r-- 1 felipe users         0 Oct 22 20:04 fort.8.pe088
-rw-r--r-- 1 felipe users         0 Oct 22 20:04 fort.8.pe089
-rw-r--r-- 1 felipe users         0 Oct 22 20:04 fort.8.pe090
-rw-r--r-- 1 felipe users         0 Oct 22 20:04 fort.8.pe091
-rw-r--r-- 1 felipe users         0 Oct 22 20:04 fort.8.pe092
-rw-r--r-- 1 felipe users         0 Oct 22 20:04 fort.8.pe093
-rw-r--r-- 1 felipe users         0 Oct 22 20:04 fort.8.pe094
-rw-r--r-- 1 felipe users         0 Oct 22 20:04 fort.8.pe095
-rw-r--r-- 1 felipe users         0 Oct 22 20:04 fort.8.pe096
-rw-r--r-- 1 felipe users         0 Oct 22 20:04 fort.8.pe097
-rw-r--r-- 1 felipe users         0 Oct 22 20:04 fort.8.pe098
-rw-r--r-- 1 felipe users         0 Oct 22 20:04 fort.8.pe099
-rw-r--r-- 1 felipe users         0 Oct 22 20:04 fort.8.pe100
-rw-r--r-- 1 felipe users         0 Oct 22 20:04 fort.8.pe101
-rw-r--r-- 1 felipe users         0 Oct 22 20:04 fort.8.pe102
-rw-r--r-- 1 felipe users         0 Oct 22 20:04 fort.8.pe103
-rw-r--r-- 1 felipe users         0 Oct 22 20:04 fort.8.pe104
-rw-r--r-- 1 felipe users         0 Oct 22 20:04 fort.8.pe105
-rw-r--r-- 1 felipe users         0 Oct 22 20:04 fort.8.pe106
-rw-r--r-- 1 felipe users         0 Oct 22 20:04 fort.8.pe107
-rw-r--r-- 1 felipe users         0 Oct 22 20:04 fort.8.pe108
-rw-r--r-- 1 felipe users         0 Oct 22 20:04 fort.8.pe109
-rw-r--r-- 1 felipe users         0 Oct 22 20:04 fort.8.pe110
-rw-r--r-- 1 felipe users         0 Oct 22 20:04 fort.8.pe111
-rw-r--r-- 1 felipe users         0 Oct 22 20:04 fort.8.pe112
-rw-r--r-- 1 felipe users         0 Oct 22 20:04 fort.8.pe113
-rw-r--r-- 1 felipe users         0 Oct 22 20:04 fort.8.pe114
-rw-r--r-- 1 felipe users         0 Oct 22 20:04 fort.8.pe115
-rw-r--r-- 1 felipe users         0 Oct 22 20:04 fort.8.pe116
-rw-r--r-- 1 felipe users         0 Oct 22 20:04 fort.8.pe117
-rw-r--r-- 1 felipe users         0 Oct 22 20:04 fort.8.pe118
-rw-r--r-- 1 felipe users         0 Oct 22 20:04 fort.8.pe119
-rw-r--r-- 1 felipe users         0 Oct 22 20:04 fort.8.pe120
-rw-r--r-- 1 felipe users         0 Oct 22 20:04 fort.8.pe121
-rw-r--r-- 1 felipe users         0 Oct 22 20:04 fort.8.pe122
-rw-r--r-- 1 felipe users         0 Oct 22 20:04 fort.8.pe123
-rw-r--r-- 1 felipe users         0 Oct 22 20:04 fort.8.pe124
-rw-r--r-- 1 felipe users         0 Oct 22 20:04 fort.8.pe125
-rw-r--r-- 1 felipe users         0 Oct 22 20:04 fort.8.pe126
-rw-r--r-- 1 felipe users         0 Oct 22 20:04 fort.8.pe127
-rw-r--r-- 1 felipe users 143253772 Oct 22 20:04 fort.9
-rw-r--r-- 1 felipe users 377254424 Oct 22 20:04 fort.98
-rw-r--r-- 1 felipe users        13 Oct 22 20:04 INPUT
-rwxr-xr-x 1 felipe users 104622352 Oct 22 20:04 Pproperties
-rw-r--r-- 1 felipe users  12901768 Oct 22 21:55 SPIN_CUBE.DAT
file fort.98 saved as /home/felipe/Wide-Band-Gap/Ga2O3/HSE06/OCTAHEDRAL/Ga2O3_VAC_OCTAHEDRAL_ECH3.f98
file fort.31 saved as /home/felipe/Wide-Band-Gap/Ga2O3/HSE06/OCTAHEDRAL/Ga2O3_VAC_OCTAHEDRAL_ECH3_dat.prop3d
file SPIN_CUBE.DAT saved as /home/felipe/Wide-Band-Gap/Ga2O3/HSE06/OCTAHEDRAL/Ga2O3_VAC_OCTAHEDRAL_ECH3_dat.SPIN_CUBE
file DENS_CUBE.DAT saved as /home/felipe/Wide-Band-Gap/Ga2O3/HSE06/OCTAHEDRAL/Ga2O3_VAC_OCTAHEDRAL_ECH3_dat.DENS_CUBE
removing temporary directories /home/felipe/tmp/tmp_p123740_felipe from each node
