date Wed Oct 22 12:24:10 PM CEST 2025
master hostname valdubon
master system Linux valdubon 6.4.0-150600.23.70-default #1 SMP PREEMPT_DYNAMIC Wed Sep 10 10:54:24 UTC 2025 (225af75) x86_64 x86_64 x86_64 GNU/Linux
user felipe
output data in /home/felipe/Wide-Band-Gap/Ga2O3/HSE06/Ga_VAC_TETRA/Ga2O3_VAC_TETRA_ECH3.outp
mpirun executable in /home/felipe/openmpi-4.1.5/bin
file machines.LINUX in /home/felipe/CRYSTAL23/utils23
list of nodes in /home/felipe/CRYSTAL23/utils23/nodes.par
creating temporary directories /home/felipe/tmp/tmp_p225870_felipe on each node
copying input file on each node
scf guess from /home/felipe/Wide-Band-Gap/Ga2O3/HSE06/Ga_VAC_TETRA/Ga2O3_VAC_TETRA.f9
copying Pproperties executable on each node
properties input data in /home/felipe/Wide-Band-Gap/Ga2O3/HSE06/Ga_VAC_TETRA/Ga2O3_VAC_TETRA_ECH3.d3
ECH3
200
END
copying input file on each node
wave function formatted data from /home/felipe/Wide-Band-Gap/Ga2O3/HSE06/Ga_VAC_TETRA/Ga2O3_VAC_TETRA.f98
         128 PROCESSORS WORKING

         
 *******************************************************************************
 *                                                                             *
 *                               CRYSTAL23                                     *
 *                      public : 1.0.1 - October 2022                          *
 *                       HTTP://WWW.CRYSTAL.UNITO.IT                           *
 *                                                                             *
 *                              MAIN AUTHORS                                   *
 *                                                                             *
 *  R. DOVESI(1,11), V.R. SAUNDERS(2), C. ROETTI(1,11), R. ORLANDO(1,11),      *
 *  C.M. ZICOVICH-WILSON(1,3), F. PASCALE(4), B. CIVALLERI(1,11),              *
 *  K. DOLL(5), N.M. HARRISON(6), I.J. BUSH(7), Ph. D'ARCO(8),                 *
 *  M. LLUNELL(9), M. CAUSA'(10), Y. NOEL(8), L. MASCHIO(1,11), A. ERBA(1,11)  *
 *  M. RE'RAT(14), S. CASASSA(1,11), B.G. SEARLE(2), J.K. DESMARAIS(1)         *
 *                                                                             *
 *        CONTRIBUTIONS TO THE CODE HAVE ALSO BEEN GIVEN BY                    *
 *                                                                             *
 *  M. FERRABONE(1,11), M. DE LA PIERRE(1,11), M. FERRERO(1,11),               *
 *  J. BAIMA(1,11), E. ALBANESE(1,11), M.F. PEINTINGER(12), R. BAST(13),       *
 *  B. KIRTMAN(15), V. LACIVITA(1,11), R. DEMICHELIS(1,16)                     *
 *  G. BRANDEBURG(17), S. SALUSTRO(1,11), G. SANSONE(1,11)                     *
 *  M.T. RUGGIERO(18), L.E. DAGA(1), L. DONA'(1), A. COSSARD(1)                *
 *                                                                             *
 * (1) THEORETICAL CHEMISTRY GROUP - UNIVERSITA' DI TORINO - TORINO (ITALY)    *
 * (2) SCIENTIFIC COMPUTING DEPARTMENT - STFC DARESBURY (UK)                   *
 * (3) UNIVERSIDAD AUTONOMA DEL ESTADO DE MORELOS - CUERNAVACA (MEXICO)        *
 * (4) UNIVERSITE' DE LORRAINE - NANCY (FRANCE)                                *
 * (5) UNIVERSITAET STUTTGART- STUTTGART (GERMANY)                             *
 * (6) IMPERIAL COLLEGE - LONDON (UK)                                          *
 * (7) SCIENTIFIC COMPUTING DEPARTMENT - STFC RAL (UK)                         *
 * (8) UPMC - SORBONNE UNIVERSITES - PARIS (FRANCE)                            *
 * (9) UNIVERSIDAD DE BARCELONA - BARCELONA (SPAIN)                            *
 *(10) UNIVERSITA' DI NAPOLI "FEDERICO II" - NAPOLI (ITALY)                    *
 *(11) NIS - NANOSTRUCTURED INTERFACES AND SURFACES - TORINO (ITALY)           *
 *(12) MPI FUER CHEMISCHE ENERGIEKONVERSION - MUELHEIM AN DER RUHR (GERMANY)   *
 *(13) UNIVERSITY OF TROMSO - TROMSO (NORWAY)                                  *
 *(14) UNIVERSITE' DE PAU ET DES PAYS DE L'ADOUR - PAU (FRANCE)                *
 *(15) UNIVERSITY OF CALIFORNIA SANTA BARBARA - SANTA BARBARA (USA)            *
 *(16) CURTIN UNIVERSITY - PERTH (AUSTRALIA)                                   *
 *(17) UNIVERSITY COLLEGE LONDON - LONDON (UK)                                 *
 *(18) UNIVERSITY OF VERMONT - BURLINGTON (USA)                                *
 *                                                                             *
 *******************************************************************************
 EEEEEEEEEE STARTING  DATE 22 10 2025 TIME 12:24:16.9
 INFORMATION **** SET_MPP **** PCRYSTAL CALCULATION

 *******************************************************************************
 β-Ga₂O₃  2×2×2 super-cell  –  neutral VGa(tet)  –  HSE06  –  spin p
 CRYSTAL - PROPERTIES - TYPE OF CALCULATION :  UNRESTRICTED OPEN SHELL
 *******************************************************************************
 SPIN POLARIZED SYSTEM: SUMMED SPIN DENSITY    3.00000000

 KOHN-SHAM HAMILTONIAN

 (EXCHANGE)[CORRELATION] FUNCTIONAL:(HSE06 SR/GGA)[PERDEW-BURKE-ERNZERHOF]

 RANGE-SEPARATED HYBRID FUNCTIONAL 
 OMEGA (SHORT-RANGE)[LONG-RANGE]:(    0.1100)[    0.0000]

 HYBRID EXCHANGE - PERCENTAGE OF FOCK EXCHANGE    25.0000

 SPIN POLARIZED DFT SELECTED

 DIRECT LATTICE VECTOR COMPONENTS (ANGSTROM)
        24.66374   -0.00009    0.06167
        -0.00002    6.12192    0.00005
        -2.81015    0.00011   11.31162

 LATTICE PARAMETERS  (ANGSTROM AND DEGREES) - PRIMITIVE CELL
       A          B          C         ALPHA      BETA     GAMMA        VOLUME
   24.66382    6.12192   11.65546     89.9989  103.8083   90.0004    1708.99672
 *******************************************************************************
 N. OF ATOMS PER CELL       160 COULOMB OVERLAP TOL          (T1) 10**   -7
 NUMBER OF SHELLS          1728 COULOMB PENETRATION TOL      (T2) 10**   -7
 NUMBER OF AO              4352 EXCHANGE OVERLAP TOL         (T3) 10**   -7
 N. OF ELECTRONS PER CELL  2721 EXCHANGE PSEUDO OVP (F(G))   (T4) 10**   -7
 CORE ELECTRONS PER CELL   1956 EXCHANGE PSEUDO OVP (P(G))   (T5) 10**  -14
 N. OF SYMMETRY OPERATORS     1 POLE ORDER IN MONO ZONE                   4
 *******************************************************************************
   ATOM N.AT.  SHELL    X(A)      Y(A)      Z(A)      EXAD       N.ELECT.
 *******************************************************************************
    1   31 GA   15    -4.661    -1.530    -1.167   2.831E-01      29.174
    2   31 GA   15    -6.176    -1.531     4.526   2.831E-01      29.247
    3    0 XX   15    -4.737     1.544    -1.210   2.831E-01      -0.081
    4   31 GA   15    -6.186     1.530     4.460   2.831E-01      29.250
    5   31 GA   15     7.561    -1.531    -1.143   2.831E-01      29.237
    6   31 GA   15     6.167    -1.531     4.512   2.831E-01      29.236
    7   31 GA   15     7.560     1.530    -1.143   2.831E-01      29.237
    8   31 GA   15     6.166     1.530     4.512   2.831E-01      29.236
    9   31 GA   15     1.402     0.017    -1.168   2.831E-01      29.240
   10   31 GA   15     0.015     0.001     4.495   2.831E-01      29.236
   11   31 GA   15     1.402     3.044    -1.167   2.831E-01      29.240
   12   31 GA   15     0.015     3.060     4.495   2.831E-01      29.236
   13   31 GA   15   -10.960     0.001    -1.183   2.831E-01      29.237
   14   31 GA   15   -12.348     0.001     4.458   2.831E-01      29.240
   15   31 GA   15   -10.960     3.060    -1.183   2.831E-01      29.237
   16   31 GA   15   -12.348     3.060     4.458   2.831E-01      29.240
   17   31 GA   15     4.766     1.530     1.171   2.831E-01      29.238
   18   31 GA   15     6.169     1.530    -4.484   2.831E-01      29.236
   19   31 GA   15     4.767    -1.531     1.169   2.831E-01      29.239
   20   31 GA   15     6.168    -1.531    -4.485   2.831E-01      29.236
   21   31 GA   15    -7.588     1.530     1.111   2.831E-01      29.229
   22   31 GA   15    -6.146     1.530    -4.435   2.831E-01      29.215
   23   31 GA   15    -7.579    -1.531     1.136   2.831E-01      29.253
   24   31 GA   15    -6.178    -1.531    -4.480   2.831E-01      29.236
   25   31 GA   15    -1.371    -0.005     1.153   2.831E-01      29.251
   26   31 GA   15     0.029    -0.004    -4.498   2.831E-01      29.237
   27   31 GA   15    -1.371     3.066     1.153   2.831E-01      29.250
   28   31 GA   15     0.029     3.065    -4.498   2.831E-01      29.237
   29   31 GA   15    10.928    -0.000     1.192   2.831E-01      29.239
   30   31 GA   15    12.305     0.000    -4.472   2.831E-01      29.236
   31   31 GA   15    10.928     3.061     1.192   2.831E-01      29.239
   32   31 GA   15    12.305     3.060    -4.472   2.831E-01      29.236
   33   31 GA   15    -4.664    -0.024     1.809   2.831E-01      29.276
   34   31 GA   15    -3.230     0.047    -3.818   2.831E-01      29.273
   35   31 GA   15    -4.664     3.084     1.809   2.831E-01      29.276
   36   31 GA   15    -3.230     3.013    -3.818   2.831E-01      29.274
   37   31 GA   15     7.677    -0.000     1.793   2.831E-01      29.269
   38   31 GA   15     9.076    -0.000    -3.858   2.831E-01      29.268
   39   31 GA   15     7.677     3.061     1.793   2.831E-01      29.269
   40   31 GA   15     9.076     3.061    -3.858   2.831E-01      29.268
   41   31 GA   15     1.526     1.530     1.781   2.831E-01      29.271
   42   31 GA   15     2.934     1.530    -3.879   2.831E-01      29.272
   43   31 GA   15     1.532    -1.531     1.773   2.831E-01      29.269
   44   31 GA   15     2.937    -1.531    -3.878   2.831E-01      29.268
   45   31 GA   15   -10.816     1.531     1.758   2.831E-01      29.273
   46   31 GA   15    -9.452     1.530    -3.919   2.831E-01      29.273
   47   31 GA   15   -10.814    -1.530     1.757   2.831E-01      29.272
   48   31 GA   15    -9.455    -1.531    -3.920   2.831E-01      29.273
   49   31 GA   15     4.650     0.001    -1.771   2.831E-01      29.270
   50   31 GA   15     3.255     0.001     3.884   2.831E-01      29.269
   51   31 GA   15     4.650     3.060    -1.771   2.831E-01      29.270
   52   31 GA   15     3.254     3.060     3.884   2.831E-01      29.269
   53   31 GA   15    -7.750     0.003    -1.826   2.831E-01      29.269
   54   31 GA   15    -9.077     0.003     3.873   2.831E-01      29.276
   55   31 GA   15    -7.751     3.058    -1.826   2.831E-01      29.268
   56   31 GA   15    -9.077     3.057     3.873   2.831E-01      29.276
   57   31 GA   15    -1.601     1.530    -1.766   2.831E-01      29.258
   58   31 GA   15    -2.905     1.531     3.879   2.831E-01      29.276
   59   31 GA   15    -1.453    -1.530    -1.812   2.831E-01      29.286
   60   31 GA   15    -2.898    -1.530     3.881   2.831E-01      29.280
   61   31 GA   15    10.798     1.530    -1.751   2.831E-01      29.269
   62   31 GA   15     9.403     1.530     3.895   2.831E-01      29.270
   63   31 GA   15    10.798    -1.531    -1.751   2.831E-01      29.269
   64   31 GA   15     9.404    -1.531     3.896   2.831E-01      29.270
   65    8 O     8    -5.797    -0.026    -1.468   4.535E-01       8.615
   66    8 O     8    -7.155    -0.010     4.131   4.535E-01       9.118
   67    8 O     8    -5.797     3.087    -1.468   4.535E-01       8.616
   68    8 O     8    -7.155     3.071     4.131   4.535E-01       9.118
   69    8 O     8     6.575    -0.000    -1.438   4.535E-01       9.109
   70    8 O     8     5.180    -0.000     4.218   4.535E-01       9.109
   71    8 O     8     6.575     3.061    -1.437   4.535E-01       9.109
   72    8 O     8     5.180     3.061     4.218   4.535E-01       9.109
   73    8 O     8     0.454    -1.531    -1.451   4.535E-01       9.122
   74    8 O     8    -0.982    -1.531     4.195   4.535E-01       9.112
   75    8 O     8     0.392     1.530    -1.462   4.535E-01       9.095
   76    8 O     8    -0.984     1.530     4.200   4.535E-01       9.109
   77    8 O     8   -11.944    -1.530    -1.474   4.535E-01       9.109
   78    8 O     8   -13.333    -1.530     4.162   4.535E-01       9.109
   79    8 O     8   -11.945     1.530    -1.475   4.535E-01       9.108
   80    8 O     8   -13.334     1.531     4.161   4.535E-01       9.108
   81    8 O     8     5.759    -0.000     1.465   4.535E-01       9.111
   82    8 O     8     7.162    -0.001    -4.191   4.535E-01       9.112
   83    8 O     8     5.759     3.061     1.465   4.535E-01       9.111
   84    8 O     8     7.162     3.061    -4.191   4.535E-01       9.112
   85    8 O     8    -6.558     0.009     1.339   4.535E-01       9.106
   86    8 O     8    -5.227    -0.015    -4.039   4.535E-01       9.109
   87    8 O     8    -6.558     3.052     1.338   4.535E-01       9.106
   88    8 O     8    -5.227     3.076    -4.039   4.535E-01       9.109
   89    8 O     8    -0.399     1.531     1.476   4.535E-01       9.111
   90    8 O     8     1.023     1.530    -4.238   4.535E-01       9.108
   91    8 O     8    -0.390    -1.530     1.484   4.535E-01       9.112
   92    8 O     8     1.039    -1.531    -4.242   4.535E-01       9.108
   93    8 O     8    11.924     1.530     1.490   4.535E-01       9.111
   94    8 O     8    13.297     1.530    -4.180   4.535E-01       9.110
   95    8 O     8    11.925    -1.531     1.492   4.535E-01       9.111
   96    8 O     8    13.296    -1.531    -4.181   4.535E-01       9.111
   97    8 O     8    -4.211     1.530     0.652   4.535E-01       8.585
   98    8 O     8    -2.935     1.530    -5.098   4.535E-01       9.109
   99    8 O     8    -4.336    -1.531     0.627   4.535E-01       9.111
  100    8 O     8    -2.991    -1.531    -5.002   4.535E-01       9.106
  101    8 O     8     8.037     1.530     0.638   4.535E-01       9.132
  102    8 O     8     9.445     1.530    -5.015   4.535E-01       9.136
  103    8 O     8     8.036    -1.531     0.637   4.535E-01       9.132
  104    8 O     8     9.446    -1.531    -5.015   4.535E-01       9.136
  105    8 O     8     1.878     0.005     0.620   4.535E-01       9.133
  106    8 O     8     3.307     0.001    -5.039   4.535E-01       9.133
  107    8 O     8     1.878     3.056     0.620   4.535E-01       9.133
  108    8 O     8     3.307     3.060    -5.039   4.535E-01       9.133
  109    8 O     8   -10.471     0.000     0.597   4.535E-01       9.132
  110    8 O     8    -9.085     0.001    -5.070   4.535E-01       9.129
  111    8 O     8   -10.471     3.061     0.597   4.535E-01       9.132
  112    8 O     8    -9.085     3.060    -5.070   4.535E-01       9.128
  113    8 O     8     4.305     1.530    -0.610   4.535E-01       9.129
  114    8 O     8     2.909     1.530     5.043   4.535E-01       9.129
  115    8 O     8     4.305    -1.531    -0.612   4.535E-01       9.128
  116    8 O     8     2.908    -1.531     5.042   4.535E-01       9.130
  117    8 O     8    -8.089     1.530    -0.656   4.535E-01       9.121
  118    8 O     8    -9.369     1.530     5.063   4.535E-01       9.119
  119    8 O     8    -8.061    -1.530    -0.644   4.535E-01       9.111
  120    8 O     8    -9.399    -1.531     5.037   4.535E-01       9.130
  121    8 O     8    -1.826    -0.025    -0.617   4.535E-01       9.116
  122    8 O     8    -3.262    -0.003     5.022   4.535E-01       9.130
  123    8 O     8    -1.826     3.085    -0.617   4.535E-01       9.116
  124    8 O     8    -3.262     3.064     5.022   4.535E-01       9.130
  125    8 O     8    10.458    -0.000    -0.588   4.535E-01       9.129
  126    8 O     8     9.051    -0.000     5.054   4.535E-01       9.130
  127    8 O     8    10.458     3.061    -0.588   4.535E-01       9.129
  128    8 O     8     9.051     3.061     5.054   4.535E-01       9.130
  129    8 O     8    -3.316     1.530    -2.582   4.535E-01       9.257
  130    8 O     8    -4.824     1.531     3.165   4.535E-01       9.256
  131    8 O     8    -3.375    -1.531    -2.461   4.535E-01       9.260
  132    8 O     8    -4.826    -1.530     3.190   4.535E-01       9.244
  133    8 O     8     8.913     1.530    -2.450   4.535E-01       9.254
  134    8 O     8     7.515     1.530     3.201   4.535E-01       9.252
  135    8 O     8     8.913    -1.530    -2.450   4.535E-01       9.254
  136    8 O     8     7.516    -1.531     3.201   4.535E-01       9.252
  137    8 O     8     2.765     0.007    -2.473   4.535E-01       9.252
  138    8 O     8     1.365     0.001     3.190   4.535E-01       9.252
  139    8 O     8     2.765     3.054    -2.473   4.535E-01       9.252
  140    8 O     8     1.365     3.060     3.190   4.535E-01       9.252
  141    8 O     8    -9.627    -0.001    -2.506   4.535E-01       9.254
  142    8 O     8   -10.969     0.003     3.177   4.535E-01       9.250
  143    8 O     8    -9.627     3.062    -2.506   4.535E-01       9.254
  144    8 O     8   -10.969     3.058     3.177   4.535E-01       9.250
  145    8 O     8     3.424     1.530     2.482   4.535E-01       9.252
  146    8 O     8     4.828     1.530    -3.174   4.535E-01       9.252
  147    8 O     8     3.422    -1.531     2.478   4.535E-01       9.252
  148    8 O     8     4.825    -1.531    -3.174   4.535E-01       9.253
  149    8 O     8    -8.914     1.531     2.448   4.535E-01       9.246
  150    8 O     8    -7.569     1.530    -3.200   4.535E-01       9.246
  151    8 O     8    -8.918    -1.531     2.446   4.535E-01       9.247
  152    8 O     8    -7.578    -1.531    -3.214   4.535E-01       9.247
  153    8 O     8    -2.757     0.010     2.446   4.535E-01       9.241
  154    8 O     8    -1.296    -0.050    -3.205   4.535E-01       9.247
  155    8 O     8    -2.757     3.051     2.446   4.535E-01       9.241
  156    8 O     8    -1.296     3.111    -3.205   4.535E-01       9.247
  157    8 O     8     9.576    -0.000     2.494   4.535E-01       9.252
  158    8 O     8    10.969    -0.000    -3.155   4.535E-01       9.253
  159    8 O     8     9.576     3.061     2.494   4.535E-01       9.252
  160    8 O     8    10.969     3.060    -3.155   4.535E-01       9.253
 *******************************************************************************
 DE(K)                   0.000E+00  ENERGY LEVEL SHIFTING        0.00000
 TOTAL ENERGY -1.2847597632892E+05  CONVERGENCE ON ENER        1.342E-07
 KIN. ENERGY   1.2830675064482E+05  VIR. COEFF.           1.01608031E+00
 N. OF SCF CYCLES                4  FERMI ENERGY              -0.100E+01
 WEIGHT OF F(I) IN F(I+1)      30
 SHRINK. FACT.(MONKH.)     2  2  2  SHRINKING FACTOR(GILAT NET)        2
 NUMBER OF K POINTS IN THE IBZ   8  CELL VOLUME (A.U.)      11361.392294
 *******************************************************************************

 GCALCO - MAX INDICES DIRECT LATTICE VECTOR     7    29    15
 NO.OF VECTORS CREATED 6999 STARS 3500 RMAX   268.48676 BOHR
 TTTTTTTTTTTTTTTTTTTTTTTTTTTTTT gordsh1     TELAPSE        3.23 TCPU        2.45

 MATRIX SIZE: P(G)10867308, F(G) 1872566, P(G) IRR 5447350, F(G) IRR 1878870
 MAX G-VECTOR INDEX FOR 1- AND 2-ELECTRON INTEGRALS  91


 CAPPA:IS1  2;IS2  2;IS3  2; K PTS MONK NET   8; SYMMOPS:K SPACE   2;G SPACE   1

 TTTTTTTTTTTTTTTTTTTTTTTTTTTTTT ECH3 START  TELAPSE        8.25 TCPU        7.47

 3D3D3D3D3D3D3D3D3D3D3D3D3D3D3D3D3D3D3D3D3D3D3D3D3D3D3D3D3D3D3D3D3D3D3D3D3D3D3D
 3D DENSITY, GRID IS 200* 50* 95
 TTTTTTTTTTTTTTTTTTTTTTTTTTTTTT CHARGE      TELAPSE     6206.56 TCPU     6201.31
 TTTTTTTTTTTTTTTTTTTTTTTTTTTTTT ECH3 END    TELAPSE     6206.56 TCPU     6201.31
 TTTTTTTTTTTTTTTTTTTTTTTTTTTTTT ECH3        TELAPSE     6206.56 TCPU     6201.31
 ENDPROP   
 TTTTTTTTTTTTTTTTTTTTTTTTTTTTTT END         TELAPSE     6206.56 TCPU     6201.31
 EEEEEEEEEE TERMINATION  DATE 22 10 2025 TIME 14:07:40.5
Wed Oct 22 02:07:40 PM CEST 2025
Contents of temporary directory:
total 28025660
-rw-r--r-- 1 felipe users  12518969 Oct 22 13:16 DENS_CUBE.DAT
-rw-r--r-- 1 felipe users         0 Oct 22 12:24 fort.10.pe000
-rw-r--r-- 1 felipe users         0 Oct 22 12:24 fort.10.pe001
-rw-r--r-- 1 felipe users         0 Oct 22 12:24 fort.10.pe002
-rw-r--r-- 1 felipe users         0 Oct 22 12:24 fort.10.pe003
-rw-r--r-- 1 felipe users         0 Oct 22 12:24 fort.10.pe004
-rw-r--r-- 1 felipe users         0 Oct 22 12:24 fort.10.pe005
-rw-r--r-- 1 felipe users         0 Oct 22 12:24 fort.10.pe006
-rw-r--r-- 1 felipe users         0 Oct 22 12:24 fort.10.pe007
-rw-r--r-- 1 felipe users         0 Oct 22 12:24 fort.10.pe008
-rw-r--r-- 1 felipe users         0 Oct 22 12:24 fort.10.pe009
-rw-r--r-- 1 felipe users         0 Oct 22 12:24 fort.10.pe010
-rw-r--r-- 1 felipe users         0 Oct 22 12:24 fort.10.pe011
-rw-r--r-- 1 felipe users         0 Oct 22 12:24 fort.10.pe012
-rw-r--r-- 1 felipe users         0 Oct 22 12:24 fort.10.pe013
-rw-r--r-- 1 felipe users         0 Oct 22 12:24 fort.10.pe014
-rw-r--r-- 1 felipe users         0 Oct 22 12:24 fort.10.pe015
-rw-r--r-- 1 felipe users         0 Oct 22 12:24 fort.10.pe016
-rw-r--r-- 1 felipe users         0 Oct 22 12:24 fort.10.pe017
-rw-r--r-- 1 felipe users         0 Oct 22 12:24 fort.10.pe018
-rw-r--r-- 1 felipe users         0 Oct 22 12:24 fort.10.pe019
-rw-r--r-- 1 felipe users         0 Oct 22 12:24 fort.10.pe020
-rw-r--r-- 1 felipe users         0 Oct 22 12:24 fort.10.pe021
-rw-r--r-- 1 felipe users         0 Oct 22 12:24 fort.10.pe022
-rw-r--r-- 1 felipe users         0 Oct 22 12:24 fort.10.pe023
-rw-r--r-- 1 felipe users         0 Oct 22 12:24 fort.10.pe024
-rw-r--r-- 1 felipe users         0 Oct 22 12:24 fort.10.pe025
-rw-r--r-- 1 felipe users         0 Oct 22 12:24 fort.10.pe026
-rw-r--r-- 1 felipe users         0 Oct 22 12:24 fort.10.pe027
-rw-r--r-- 1 felipe users         0 Oct 22 12:24 fort.10.pe028
-rw-r--r-- 1 felipe users         0 Oct 22 12:24 fort.10.pe029
-rw-r--r-- 1 felipe users         0 Oct 22 12:24 fort.10.pe030
-rw-r--r-- 1 felipe users         0 Oct 22 12:24 fort.10.pe031
-rw-r--r-- 1 felipe users         0 Oct 22 12:24 fort.10.pe032
-rw-r--r-- 1 felipe users         0 Oct 22 12:24 fort.10.pe033
-rw-r--r-- 1 felipe users         0 Oct 22 12:24 fort.10.pe034
-rw-r--r-- 1 felipe users         0 Oct 22 12:24 fort.10.pe035
-rw-r--r-- 1 felipe users         0 Oct 22 12:24 fort.10.pe036
-rw-r--r-- 1 felipe users         0 Oct 22 12:24 fort.10.pe037
-rw-r--r-- 1 felipe users         0 Oct 22 12:24 fort.10.pe038
-rw-r--r-- 1 felipe users         0 Oct 22 12:24 fort.10.pe039
-rw-r--r-- 1 felipe users         0 Oct 22 12:24 fort.10.pe040
-rw-r--r-- 1 felipe users         0 Oct 22 12:24 fort.10.pe041
-rw-r--r-- 1 felipe users         0 Oct 22 12:24 fort.10.pe042
-rw-r--r-- 1 felipe users         0 Oct 22 12:24 fort.10.pe043
-rw-r--r-- 1 felipe users         0 Oct 22 12:24 fort.10.pe044
-rw-r--r-- 1 felipe users         0 Oct 22 12:24 fort.10.pe045
-rw-r--r-- 1 felipe users         0 Oct 22 12:24 fort.10.pe046
-rw-r--r-- 1 felipe users         0 Oct 22 12:24 fort.10.pe047
-rw-r--r-- 1 felipe users         0 Oct 22 12:24 fort.10.pe048
-rw-r--r-- 1 felipe users         0 Oct 22 12:24 fort.10.pe049
-rw-r--r-- 1 felipe users         0 Oct 22 12:24 fort.10.pe050
-rw-r--r-- 1 felipe users         0 Oct 22 12:24 fort.10.pe051
-rw-r--r-- 1 felipe users         0 Oct 22 12:24 fort.10.pe052
-rw-r--r-- 1 felipe users         0 Oct 22 12:24 fort.10.pe053
-rw-r--r-- 1 felipe users         0 Oct 22 12:24 fort.10.pe054
-rw-r--r-- 1 felipe users         0 Oct 22 12:24 fort.10.pe055
-rw-r--r-- 1 felipe users         0 Oct 22 12:24 fort.10.pe056
-rw-r--r-- 1 felipe users         0 Oct 22 12:24 fort.10.pe057
-rw-r--r-- 1 felipe users         0 Oct 22 12:24 fort.10.pe058
-rw-r--r-- 1 felipe users         0 Oct 22 12:24 fort.10.pe059
-rw-r--r-- 1 felipe users         0 Oct 22 12:24 fort.10.pe060
-rw-r--r-- 1 felipe users         0 Oct 22 12:24 fort.10.pe061
-rw-r--r-- 1 felipe users         0 Oct 22 12:24 fort.10.pe062
-rw-r--r-- 1 felipe users         0 Oct 22 12:24 fort.10.pe063
-rw-r--r-- 1 felipe users         0 Oct 22 12:24 fort.10.pe064
-rw-r--r-- 1 felipe users         0 Oct 22 12:24 fort.10.pe065
-rw-r--r-- 1 felipe users         0 Oct 22 12:24 fort.10.pe066
-rw-r--r-- 1 felipe users         0 Oct 22 12:24 fort.10.pe067
-rw-r--r-- 1 felipe users         0 Oct 22 12:24 fort.10.pe068
-rw-r--r-- 1 felipe users         0 Oct 22 12:24 fort.10.pe069
-rw-r--r-- 1 felipe users         0 Oct 22 12:24 fort.10.pe070
-rw-r--r-- 1 felipe users         0 Oct 22 12:24 fort.10.pe071
-rw-r--r-- 1 felipe users         0 Oct 22 12:24 fort.10.pe072
-rw-r--r-- 1 felipe users         0 Oct 22 12:24 fort.10.pe073
-rw-r--r-- 1 felipe users         0 Oct 22 12:24 fort.10.pe074
-rw-r--r-- 1 felipe users         0 Oct 22 12:24 fort.10.pe075
-rw-r--r-- 1 felipe users         0 Oct 22 12:24 fort.10.pe076
-rw-r--r-- 1 felipe users         0 Oct 22 12:24 fort.10.pe077
-rw-r--r-- 1 felipe users         0 Oct 22 12:24 fort.10.pe078
-rw-r--r-- 1 felipe users         0 Oct 22 12:24 fort.10.pe079
-rw-r--r-- 1 felipe users         0 Oct 22 12:24 fort.10.pe080
-rw-r--r-- 1 felipe users         0 Oct 22 12:24 fort.10.pe081
-rw-r--r-- 1 felipe users         0 Oct 22 12:24 fort.10.pe082
-rw-r--r-- 1 felipe users         0 Oct 22 12:24 fort.10.pe083
-rw-r--r-- 1 felipe users         0 Oct 22 12:24 fort.10.pe084
-rw-r--r-- 1 felipe users         0 Oct 22 12:24 fort.10.pe085
-rw-r--r-- 1 felipe users         0 Oct 22 12:24 fort.10.pe086
-rw-r--r-- 1 felipe users         0 Oct 22 12:24 fort.10.pe087
-rw-r--r-- 1 felipe users         0 Oct 22 12:24 fort.10.pe088
-rw-r--r-- 1 felipe users         0 Oct 22 12:24 fort.10.pe089
-rw-r--r-- 1 felipe users         0 Oct 22 12:24 fort.10.pe090
-rw-r--r-- 1 felipe users         0 Oct 22 12:24 fort.10.pe091
-rw-r--r-- 1 felipe users         0 Oct 22 12:24 fort.10.pe092
-rw-r--r-- 1 felipe users         0 Oct 22 12:24 fort.10.pe093
-rw-r--r-- 1 felipe users         0 Oct 22 12:24 fort.10.pe094
-rw-r--r-- 1 felipe users         0 Oct 22 12:24 fort.10.pe095
-rw-r--r-- 1 felipe users         0 Oct 22 12:24 fort.10.pe096
-rw-r--r-- 1 felipe users         0 Oct 22 12:24 fort.10.pe097
-rw-r--r-- 1 felipe users         0 Oct 22 12:24 fort.10.pe098
-rw-r--r-- 1 felipe users         0 Oct 22 12:24 fort.10.pe099
-rw-r--r-- 1 felipe users         0 Oct 22 12:24 fort.10.pe100
-rw-r--r-- 1 felipe users         0 Oct 22 12:24 fort.10.pe101
-rw-r--r-- 1 felipe users         0 Oct 22 12:24 fort.10.pe102
-rw-r--r-- 1 felipe users         0 Oct 22 12:24 fort.10.pe103
-rw-r--r-- 1 felipe users         0 Oct 22 12:24 fort.10.pe104
-rw-r--r-- 1 felipe users         0 Oct 22 12:24 fort.10.pe105
-rw-r--r-- 1 felipe users         0 Oct 22 12:24 fort.10.pe106
-rw-r--r-- 1 felipe users         0 Oct 22 12:24 fort.10.pe107
-rw-r--r-- 1 felipe users         0 Oct 22 12:24 fort.10.pe108
-rw-r--r-- 1 felipe users         0 Oct 22 12:24 fort.10.pe109
-rw-r--r-- 1 felipe users         0 Oct 22 12:24 fort.10.pe110
-rw-r--r-- 1 felipe users         0 Oct 22 12:24 fort.10.pe111
-rw-r--r-- 1 felipe users         0 Oct 22 12:24 fort.10.pe112
-rw-r--r-- 1 felipe users         0 Oct 22 12:24 fort.10.pe113
-rw-r--r-- 1 felipe users         0 Oct 22 12:24 fort.10.pe114
-rw-r--r-- 1 felipe users         0 Oct 22 12:24 fort.10.pe115
-rw-r--r-- 1 felipe users         0 Oct 22 12:24 fort.10.pe116
-rw-r--r-- 1 felipe users         0 Oct 22 12:24 fort.10.pe117
-rw-r--r-- 1 felipe users         0 Oct 22 12:24 fort.10.pe118
-rw-r--r-- 1 felipe users         0 Oct 22 12:24 fort.10.pe119
-rw-r--r-- 1 felipe users         0 Oct 22 12:24 fort.10.pe120
-rw-r--r-- 1 felipe users         0 Oct 22 12:24 fort.10.pe121
-rw-r--r-- 1 felipe users         0 Oct 22 12:24 fort.10.pe122
-rw-r--r-- 1 felipe users         0 Oct 22 12:24 fort.10.pe123
-rw-r--r-- 1 felipe users         0 Oct 22 12:24 fort.10.pe124
-rw-r--r-- 1 felipe users         0 Oct 22 12:24 fort.10.pe125
-rw-r--r-- 1 felipe users         0 Oct 22 12:24 fort.10.pe126
-rw-r--r-- 1 felipe users         0 Oct 22 12:24 fort.10.pe127
-rw-r--r-- 1 felipe users  29961072 Oct 22 12:24 fort.11.pe000
-rw-r--r-- 1 felipe users  29961072 Oct 22 12:24 fort.11.pe001
-rw-r--r-- 1 felipe users  29961072 Oct 22 12:24 fort.11.pe002
-rw-r--r-- 1 felipe users  29961072 Oct 22 12:24 fort.11.pe003
-rw-r--r-- 1 felipe users  29961072 Oct 22 12:24 fort.11.pe004
-rw-r--r-- 1 felipe users  29961072 Oct 22 12:24 fort.11.pe005
-rw-r--r-- 1 felipe users  29961072 Oct 22 12:24 fort.11.pe006
-rw-r--r-- 1 felipe users  29961072 Oct 22 12:24 fort.11.pe007
-rw-r--r-- 1 felipe users  29961072 Oct 22 12:24 fort.11.pe008
-rw-r--r-- 1 felipe users  29961072 Oct 22 12:24 fort.11.pe009
-rw-r--r-- 1 felipe users  29961072 Oct 22 12:24 fort.11.pe010
-rw-r--r-- 1 felipe users  29961072 Oct 22 12:24 fort.11.pe011
-rw-r--r-- 1 felipe users  29961072 Oct 22 12:24 fort.11.pe012
-rw-r--r-- 1 felipe users  29961072 Oct 22 12:24 fort.11.pe013
-rw-r--r-- 1 felipe users  29961072 Oct 22 12:24 fort.11.pe014
-rw-r--r-- 1 felipe users  29961072 Oct 22 12:24 fort.11.pe015
-rw-r--r-- 1 felipe users  29961072 Oct 22 12:24 fort.11.pe016
-rw-r--r-- 1 felipe users  29961072 Oct 22 12:24 fort.11.pe017
-rw-r--r-- 1 felipe users  29961072 Oct 22 12:24 fort.11.pe018
-rw-r--r-- 1 felipe users  29961072 Oct 22 12:24 fort.11.pe019
-rw-r--r-- 1 felipe users  29961072 Oct 22 12:24 fort.11.pe020
-rw-r--r-- 1 felipe users  29961072 Oct 22 12:24 fort.11.pe021
-rw-r--r-- 1 felipe users  29961072 Oct 22 12:24 fort.11.pe022
-rw-r--r-- 1 felipe users  29961072 Oct 22 12:24 fort.11.pe023
-rw-r--r-- 1 felipe users  29961072 Oct 22 12:24 fort.11.pe024
-rw-r--r-- 1 felipe users  29961072 Oct 22 12:24 fort.11.pe025
-rw-r--r-- 1 felipe users  29961072 Oct 22 12:24 fort.11.pe026
-rw-r--r-- 1 felipe users  29961072 Oct 22 12:24 fort.11.pe027
-rw-r--r-- 1 felipe users  29961072 Oct 22 12:24 fort.11.pe028
-rw-r--r-- 1 felipe users  29961072 Oct 22 12:24 fort.11.pe029
-rw-r--r-- 1 felipe users  29961072 Oct 22 12:24 fort.11.pe030
-rw-r--r-- 1 felipe users  29961072 Oct 22 12:24 fort.11.pe031
-rw-r--r-- 1 felipe users  29961072 Oct 22 12:24 fort.11.pe032
-rw-r--r-- 1 felipe users  29961072 Oct 22 12:24 fort.11.pe033
-rw-r--r-- 1 felipe users  29961072 Oct 22 12:24 fort.11.pe034
-rw-r--r-- 1 felipe users  29961072 Oct 22 12:24 fort.11.pe035
-rw-r--r-- 1 felipe users  29961072 Oct 22 12:24 fort.11.pe036
-rw-r--r-- 1 felipe users  29961072 Oct 22 12:24 fort.11.pe037
-rw-r--r-- 1 felipe users  29961072 Oct 22 12:24 fort.11.pe038
-rw-r--r-- 1 felipe users  29961072 Oct 22 12:24 fort.11.pe039
-rw-r--r-- 1 felipe users  29961072 Oct 22 12:24 fort.11.pe040
-rw-r--r-- 1 felipe users  29961072 Oct 22 12:24 fort.11.pe041
-rw-r--r-- 1 felipe users  29961072 Oct 22 12:24 fort.11.pe042
-rw-r--r-- 1 felipe users  29961072 Oct 22 12:24 fort.11.pe043
-rw-r--r-- 1 felipe users  29961072 Oct 22 12:24 fort.11.pe044
-rw-r--r-- 1 felipe users  29961072 Oct 22 12:24 fort.11.pe045
-rw-r--r-- 1 felipe users  29961072 Oct 22 12:24 fort.11.pe046
-rw-r--r-- 1 felipe users  29961072 Oct 22 12:24 fort.11.pe047
-rw-r--r-- 1 felipe users  29961072 Oct 22 12:24 fort.11.pe048
-rw-r--r-- 1 felipe users  29961072 Oct 22 12:24 fort.11.pe049
-rw-r--r-- 1 felipe users  29961072 Oct 22 12:24 fort.11.pe050
-rw-r--r-- 1 felipe users  29961072 Oct 22 12:24 fort.11.pe051
-rw-r--r-- 1 felipe users  29961072 Oct 22 12:24 fort.11.pe052
-rw-r--r-- 1 felipe users  29961072 Oct 22 12:24 fort.11.pe053
-rw-r--r-- 1 felipe users  29961072 Oct 22 12:24 fort.11.pe054
-rw-r--r-- 1 felipe users  29961072 Oct 22 12:24 fort.11.pe055
-rw-r--r-- 1 felipe users  29961072 Oct 22 12:24 fort.11.pe056
-rw-r--r-- 1 felipe users  29961072 Oct 22 12:24 fort.11.pe057
-rw-r--r-- 1 felipe users  29961072 Oct 22 12:24 fort.11.pe058
-rw-r--r-- 1 felipe users  29961072 Oct 22 12:24 fort.11.pe059
-rw-r--r-- 1 felipe users  29961072 Oct 22 12:24 fort.11.pe060
-rw-r--r-- 1 felipe users  29961072 Oct 22 12:24 fort.11.pe061
-rw-r--r-- 1 felipe users  29961072 Oct 22 12:24 fort.11.pe062
-rw-r--r-- 1 felipe users  29961072 Oct 22 12:24 fort.11.pe063
-rw-r--r-- 1 felipe users  29961072 Oct 22 12:24 fort.11.pe064
-rw-r--r-- 1 felipe users  29961072 Oct 22 12:24 fort.11.pe065
-rw-r--r-- 1 felipe users  29961072 Oct 22 12:24 fort.11.pe066
-rw-r--r-- 1 felipe users  29961072 Oct 22 12:24 fort.11.pe067
-rw-r--r-- 1 felipe users  29961072 Oct 22 12:24 fort.11.pe068
-rw-r--r-- 1 felipe users  29961072 Oct 22 12:24 fort.11.pe069
-rw-r--r-- 1 felipe users  29961072 Oct 22 12:24 fort.11.pe070
-rw-r--r-- 1 felipe users  29961072 Oct 22 12:24 fort.11.pe071
-rw-r--r-- 1 felipe users  29961072 Oct 22 12:24 fort.11.pe072
-rw-r--r-- 1 felipe users  29961072 Oct 22 12:24 fort.11.pe073
-rw-r--r-- 1 felipe users  29961072 Oct 22 12:24 fort.11.pe074
-rw-r--r-- 1 felipe users  29961072 Oct 22 12:24 fort.11.pe075
-rw-r--r-- 1 felipe users  29961072 Oct 22 12:24 fort.11.pe076
-rw-r--r-- 1 felipe users  29961072 Oct 22 12:24 fort.11.pe077
-rw-r--r-- 1 felipe users  29961072 Oct 22 12:24 fort.11.pe078
-rw-r--r-- 1 felipe users  29961072 Oct 22 12:24 fort.11.pe079
-rw-r--r-- 1 felipe users  29961072 Oct 22 12:24 fort.11.pe080
-rw-r--r-- 1 felipe users  29961072 Oct 22 12:24 fort.11.pe081
-rw-r--r-- 1 felipe users  29961072 Oct 22 12:24 fort.11.pe082
-rw-r--r-- 1 felipe users  29961072 Oct 22 12:24 fort.11.pe083
-rw-r--r-- 1 felipe users  29961072 Oct 22 12:24 fort.11.pe084
-rw-r--r-- 1 felipe users  29961072 Oct 22 12:24 fort.11.pe085
-rw-r--r-- 1 felipe users  29961072 Oct 22 12:24 fort.11.pe086
-rw-r--r-- 1 felipe users  29961072 Oct 22 12:24 fort.11.pe087
-rw-r--r-- 1 felipe users  29961072 Oct 22 12:24 fort.11.pe088
-rw-r--r-- 1 felipe users  29961072 Oct 22 12:24 fort.11.pe089
-rw-r--r-- 1 felipe users  29961072 Oct 22 12:24 fort.11.pe090
-rw-r--r-- 1 felipe users  29961072 Oct 22 12:24 fort.11.pe091
-rw-r--r-- 1 felipe users  29961072 Oct 22 12:24 fort.11.pe092
-rw-r--r-- 1 felipe users  29961072 Oct 22 12:24 fort.11.pe093
-rw-r--r-- 1 felipe users  29961072 Oct 22 12:24 fort.11.pe094
-rw-r--r-- 1 felipe users  29961072 Oct 22 12:24 fort.11.pe095
-rw-r--r-- 1 felipe users  29961072 Oct 22 12:24 fort.11.pe096
-rw-r--r-- 1 felipe users  29961072 Oct 22 12:24 fort.11.pe097
-rw-r--r-- 1 felipe users  29961072 Oct 22 12:24 fort.11.pe098
-rw-r--r-- 1 felipe users  29961072 Oct 22 12:24 fort.11.pe099
-rw-r--r-- 1 felipe users  29961072 Oct 22 12:24 fort.11.pe100
-rw-r--r-- 1 felipe users  29961072 Oct 22 12:24 fort.11.pe101
-rw-r--r-- 1 felipe users  29961072 Oct 22 12:24 fort.11.pe102
-rw-r--r-- 1 felipe users  29961072 Oct 22 12:24 fort.11.pe103
-rw-r--r-- 1 felipe users  29961072 Oct 22 12:24 fort.11.pe104
-rw-r--r-- 1 felipe users  29961072 Oct 22 12:24 fort.11.pe105
-rw-r--r-- 1 felipe users  29961072 Oct 22 12:24 fort.11.pe106
-rw-r--r-- 1 felipe users  29961072 Oct 22 12:24 fort.11.pe107
-rw-r--r-- 1 felipe users  29961072 Oct 22 12:24 fort.11.pe108
-rw-r--r-- 1 felipe users  29961072 Oct 22 12:24 fort.11.pe109
-rw-r--r-- 1 felipe users  29961072 Oct 22 12:24 fort.11.pe110
-rw-r--r-- 1 felipe users  29961072 Oct 22 12:24 fort.11.pe111
-rw-r--r-- 1 felipe users  29961072 Oct 22 12:24 fort.11.pe112
-rw-r--r-- 1 felipe users  29961072 Oct 22 12:24 fort.11.pe113
-rw-r--r-- 1 felipe users  29961072 Oct 22 12:24 fort.11.pe114
-rw-r--r-- 1 felipe users  29961072 Oct 22 12:24 fort.11.pe115
-rw-r--r-- 1 felipe users  29961072 Oct 22 12:24 fort.11.pe116
-rw-r--r-- 1 felipe users  29961072 Oct 22 12:24 fort.11.pe117
-rw-r--r-- 1 felipe users  29961072 Oct 22 12:24 fort.11.pe118
-rw-r--r-- 1 felipe users  29961072 Oct 22 12:24 fort.11.pe119
-rw-r--r-- 1 felipe users  29961072 Oct 22 12:24 fort.11.pe120
-rw-r--r-- 1 felipe users  29961072 Oct 22 12:24 fort.11.pe121
-rw-r--r-- 1 felipe users  29961072 Oct 22 12:24 fort.11.pe122
-rw-r--r-- 1 felipe users  29961072 Oct 22 12:24 fort.11.pe123
-rw-r--r-- 1 felipe users  29961072 Oct 22 12:24 fort.11.pe124
-rw-r--r-- 1 felipe users  29961072 Oct 22 12:24 fort.11.pe125
-rw-r--r-- 1 felipe users  29961072 Oct 22 12:24 fort.11.pe126
-rw-r--r-- 1 felipe users  29961072 Oct 22 12:24 fort.11.pe127
-rw-r--r-- 1 felipe users 173876936 Oct 22 12:24 fort.13.pe000
-rw-r--r-- 1 felipe users 173876936 Oct 22 12:24 fort.13.pe001
-rw-r--r-- 1 felipe users 173876936 Oct 22 12:24 fort.13.pe002
-rw-r--r-- 1 felipe users 173876936 Oct 22 12:24 fort.13.pe003
-rw-r--r-- 1 felipe users 173876936 Oct 22 12:24 fort.13.pe004
-rw-r--r-- 1 felipe users 173876936 Oct 22 12:24 fort.13.pe005
-rw-r--r-- 1 felipe users 173876936 Oct 22 12:24 fort.13.pe006
-rw-r--r-- 1 felipe users 173876936 Oct 22 12:24 fort.13.pe007
-rw-r--r-- 1 felipe users 173876936 Oct 22 12:24 fort.13.pe008
-rw-r--r-- 1 felipe users 173876936 Oct 22 12:24 fort.13.pe009
-rw-r--r-- 1 felipe users 173876936 Oct 22 12:24 fort.13.pe010
-rw-r--r-- 1 felipe users 173876936 Oct 22 12:24 fort.13.pe011
-rw-r--r-- 1 felipe users 173876936 Oct 22 12:24 fort.13.pe012
-rw-r--r-- 1 felipe users 173876936 Oct 22 12:24 fort.13.pe013
-rw-r--r-- 1 felipe users 173876936 Oct 22 12:24 fort.13.pe014
-rw-r--r-- 1 felipe users 173876936 Oct 22 12:24 fort.13.pe015
-rw-r--r-- 1 felipe users 173876936 Oct 22 12:24 fort.13.pe016
-rw-r--r-- 1 felipe users 173876936 Oct 22 12:24 fort.13.pe017
-rw-r--r-- 1 felipe users 173876936 Oct 22 12:24 fort.13.pe018
-rw-r--r-- 1 felipe users 173876936 Oct 22 12:24 fort.13.pe019
-rw-r--r-- 1 felipe users 173876936 Oct 22 12:24 fort.13.pe020
-rw-r--r-- 1 felipe users 173876936 Oct 22 12:24 fort.13.pe021
-rw-r--r-- 1 felipe users 173876936 Oct 22 12:24 fort.13.pe022
-rw-r--r-- 1 felipe users 173876936 Oct 22 12:24 fort.13.pe023
-rw-r--r-- 1 felipe users 173876936 Oct 22 12:24 fort.13.pe024
-rw-r--r-- 1 felipe users 173876936 Oct 22 12:24 fort.13.pe025
-rw-r--r-- 1 felipe users 173876936 Oct 22 12:24 fort.13.pe026
-rw-r--r-- 1 felipe users 173876936 Oct 22 12:24 fort.13.pe027
-rw-r--r-- 1 felipe users 173876936 Oct 22 12:24 fort.13.pe028
-rw-r--r-- 1 felipe users 173876936 Oct 22 12:24 fort.13.pe029
-rw-r--r-- 1 felipe users 173876936 Oct 22 12:24 fort.13.pe030
-rw-r--r-- 1 felipe users 173876936 Oct 22 12:24 fort.13.pe031
-rw-r--r-- 1 felipe users 173876936 Oct 22 12:24 fort.13.pe032
-rw-r--r-- 1 felipe users 173876936 Oct 22 12:24 fort.13.pe033
-rw-r--r-- 1 felipe users 173876936 Oct 22 12:24 fort.13.pe034
-rw-r--r-- 1 felipe users 173876936 Oct 22 12:24 fort.13.pe035
-rw-r--r-- 1 felipe users 173876936 Oct 22 12:24 fort.13.pe036
-rw-r--r-- 1 felipe users 173876936 Oct 22 12:24 fort.13.pe037
-rw-r--r-- 1 felipe users 173876936 Oct 22 12:24 fort.13.pe038
-rw-r--r-- 1 felipe users 173876936 Oct 22 12:24 fort.13.pe039
-rw-r--r-- 1 felipe users 173876936 Oct 22 12:24 fort.13.pe040
-rw-r--r-- 1 felipe users 173876936 Oct 22 12:24 fort.13.pe041
-rw-r--r-- 1 felipe users 173876936 Oct 22 12:24 fort.13.pe042
-rw-r--r-- 1 felipe users 173876936 Oct 22 12:24 fort.13.pe043
-rw-r--r-- 1 felipe users 173876936 Oct 22 12:24 fort.13.pe044
-rw-r--r-- 1 felipe users 173876936 Oct 22 12:24 fort.13.pe045
-rw-r--r-- 1 felipe users 173876936 Oct 22 12:24 fort.13.pe046
-rw-r--r-- 1 felipe users 173876936 Oct 22 12:24 fort.13.pe047
-rw-r--r-- 1 felipe users 173876936 Oct 22 12:24 fort.13.pe048
-rw-r--r-- 1 felipe users 173876936 Oct 22 12:24 fort.13.pe049
-rw-r--r-- 1 felipe users 173876936 Oct 22 12:24 fort.13.pe050
-rw-r--r-- 1 felipe users 173876936 Oct 22 12:24 fort.13.pe051
-rw-r--r-- 1 felipe users 173876936 Oct 22 12:24 fort.13.pe052
-rw-r--r-- 1 felipe users 173876936 Oct 22 12:24 fort.13.pe053
-rw-r--r-- 1 felipe users 173876936 Oct 22 12:24 fort.13.pe054
-rw-r--r-- 1 felipe users 173876936 Oct 22 12:24 fort.13.pe055
-rw-r--r-- 1 felipe users 173876936 Oct 22 12:24 fort.13.pe056
-rw-r--r-- 1 felipe users 173876936 Oct 22 12:24 fort.13.pe057
-rw-r--r-- 1 felipe users 173876936 Oct 22 12:24 fort.13.pe058
-rw-r--r-- 1 felipe users 173876936 Oct 22 12:24 fort.13.pe059
-rw-r--r-- 1 felipe users 173876936 Oct 22 12:24 fort.13.pe060
-rw-r--r-- 1 felipe users 173876936 Oct 22 12:24 fort.13.pe061
-rw-r--r-- 1 felipe users 173876936 Oct 22 12:24 fort.13.pe062
-rw-r--r-- 1 felipe users 173876936 Oct 22 12:24 fort.13.pe063
-rw-r--r-- 1 felipe users 173876936 Oct 22 12:24 fort.13.pe064
-rw-r--r-- 1 felipe users 173876936 Oct 22 12:24 fort.13.pe065
-rw-r--r-- 1 felipe users 173876936 Oct 22 12:24 fort.13.pe066
-rw-r--r-- 1 felipe users 173876936 Oct 22 12:24 fort.13.pe067
-rw-r--r-- 1 felipe users 173876936 Oct 22 12:24 fort.13.pe068
-rw-r--r-- 1 felipe users 173876936 Oct 22 12:24 fort.13.pe069
-rw-r--r-- 1 felipe users 173876936 Oct 22 12:24 fort.13.pe070
-rw-r--r-- 1 felipe users 173876936 Oct 22 12:24 fort.13.pe071
-rw-r--r-- 1 felipe users 173876936 Oct 22 12:24 fort.13.pe072
-rw-r--r-- 1 felipe users 173876936 Oct 22 12:24 fort.13.pe073
-rw-r--r-- 1 felipe users 173876936 Oct 22 12:24 fort.13.pe074
-rw-r--r-- 1 felipe users 173876936 Oct 22 12:24 fort.13.pe075
-rw-r--r-- 1 felipe users 173876936 Oct 22 12:24 fort.13.pe076
-rw-r--r-- 1 felipe users 173876936 Oct 22 12:24 fort.13.pe077
-rw-r--r-- 1 felipe users 173876936 Oct 22 12:24 fort.13.pe078
-rw-r--r-- 1 felipe users 173876936 Oct 22 12:24 fort.13.pe079
-rw-r--r-- 1 felipe users 173876936 Oct 22 12:24 fort.13.pe080
-rw-r--r-- 1 felipe users 173876936 Oct 22 12:24 fort.13.pe081
-rw-r--r-- 1 felipe users 173876936 Oct 22 12:24 fort.13.pe082
-rw-r--r-- 1 felipe users 173876936 Oct 22 12:24 fort.13.pe083
-rw-r--r-- 1 felipe users 173876936 Oct 22 12:24 fort.13.pe084
-rw-r--r-- 1 felipe users 173876936 Oct 22 12:24 fort.13.pe085
-rw-r--r-- 1 felipe users 173876936 Oct 22 12:24 fort.13.pe086
-rw-r--r-- 1 felipe users 173876936 Oct 22 12:24 fort.13.pe087
-rw-r--r-- 1 felipe users 173876936 Oct 22 12:24 fort.13.pe088
-rw-r--r-- 1 felipe users 173876936 Oct 22 12:24 fort.13.pe089
-rw-r--r-- 1 felipe users 173876936 Oct 22 12:24 fort.13.pe090
-rw-r--r-- 1 felipe users 173876936 Oct 22 12:24 fort.13.pe091
-rw-r--r-- 1 felipe users 173876936 Oct 22 12:24 fort.13.pe092
-rw-r--r-- 1 felipe users 173876936 Oct 22 12:24 fort.13.pe093
-rw-r--r-- 1 felipe users 173876936 Oct 22 12:24 fort.13.pe094
-rw-r--r-- 1 felipe users 173876936 Oct 22 12:24 fort.13.pe095
-rw-r--r-- 1 felipe users 173876936 Oct 22 12:24 fort.13.pe096
-rw-r--r-- 1 felipe users 173876936 Oct 22 12:24 fort.13.pe097
-rw-r--r-- 1 felipe users 173876936 Oct 22 12:24 fort.13.pe098
-rw-r--r-- 1 felipe users 173876936 Oct 22 12:24 fort.13.pe099
-rw-r--r-- 1 felipe users 173876936 Oct 22 12:24 fort.13.pe100
-rw-r--r-- 1 felipe users 173876936 Oct 22 12:24 fort.13.pe101
-rw-r--r-- 1 felipe users 173876936 Oct 22 12:24 fort.13.pe102
-rw-r--r-- 1 felipe users 173876936 Oct 22 12:24 fort.13.pe103
-rw-r--r-- 1 felipe users 173876936 Oct 22 12:24 fort.13.pe104
-rw-r--r-- 1 felipe users 173876936 Oct 22 12:24 fort.13.pe105
-rw-r--r-- 1 felipe users 173876936 Oct 22 12:24 fort.13.pe106
-rw-r--r-- 1 felipe users 173876936 Oct 22 12:24 fort.13.pe107
-rw-r--r-- 1 felipe users 173876936 Oct 22 12:24 fort.13.pe108
-rw-r--r-- 1 felipe users 173876936 Oct 22 12:24 fort.13.pe109
-rw-r--r-- 1 felipe users 173876936 Oct 22 12:24 fort.13.pe110
-rw-r--r-- 1 felipe users 173876936 Oct 22 12:24 fort.13.pe111
-rw-r--r-- 1 felipe users 173876936 Oct 22 12:24 fort.13.pe112
-rw-r--r-- 1 felipe users 173876936 Oct 22 12:24 fort.13.pe113
-rw-r--r-- 1 felipe users 173876936 Oct 22 12:24 fort.13.pe114
-rw-r--r-- 1 felipe users 173876936 Oct 22 12:24 fort.13.pe115
-rw-r--r-- 1 felipe users 173876936 Oct 22 12:24 fort.13.pe116
-rw-r--r-- 1 felipe users 173876936 Oct 22 12:24 fort.13.pe117
-rw-r--r-- 1 felipe users 173876936 Oct 22 12:24 fort.13.pe118
-rw-r--r-- 1 felipe users 173876936 Oct 22 12:24 fort.13.pe119
-rw-r--r-- 1 felipe users 173876936 Oct 22 12:24 fort.13.pe120
-rw-r--r-- 1 felipe users 173876936 Oct 22 12:24 fort.13.pe121
-rw-r--r-- 1 felipe users 173876936 Oct 22 12:24 fort.13.pe122
-rw-r--r-- 1 felipe users 173876936 Oct 22 12:24 fort.13.pe123
-rw-r--r-- 1 felipe users 173876936 Oct 22 12:24 fort.13.pe124
-rw-r--r-- 1 felipe users 173876936 Oct 22 12:24 fort.13.pe125
-rw-r--r-- 1 felipe users 173876936 Oct 22 12:24 fort.13.pe126
-rw-r--r-- 1 felipe users 173876936 Oct 22 12:24 fort.13.pe127
-rw-r--r-- 1 felipe users         0 Oct 22 12:24 fort.15.pe000
-rw-r--r-- 1 felipe users         0 Oct 22 12:24 fort.15.pe001
-rw-r--r-- 1 felipe users         0 Oct 22 12:24 fort.15.pe002
-rw-r--r-- 1 felipe users         0 Oct 22 12:24 fort.15.pe003
-rw-r--r-- 1 felipe users         0 Oct 22 12:24 fort.15.pe004
-rw-r--r-- 1 felipe users         0 Oct 22 12:24 fort.15.pe005
-rw-r--r-- 1 felipe users         0 Oct 22 12:24 fort.15.pe006
-rw-r--r-- 1 felipe users         0 Oct 22 12:24 fort.15.pe007
-rw-r--r-- 1 felipe users         0 Oct 22 12:24 fort.15.pe008
-rw-r--r-- 1 felipe users         0 Oct 22 12:24 fort.15.pe009
-rw-r--r-- 1 felipe users         0 Oct 22 12:24 fort.15.pe010
-rw-r--r-- 1 felipe users         0 Oct 22 12:24 fort.15.pe011
-rw-r--r-- 1 felipe users         0 Oct 22 12:24 fort.15.pe012
-rw-r--r-- 1 felipe users         0 Oct 22 12:24 fort.15.pe013
-rw-r--r-- 1 felipe users         0 Oct 22 12:24 fort.15.pe014
-rw-r--r-- 1 felipe users         0 Oct 22 12:24 fort.15.pe015
-rw-r--r-- 1 felipe users         0 Oct 22 12:24 fort.15.pe016
-rw-r--r-- 1 felipe users         0 Oct 22 12:24 fort.15.pe017
-rw-r--r-- 1 felipe users         0 Oct 22 12:24 fort.15.pe018
-rw-r--r-- 1 felipe users         0 Oct 22 12:24 fort.15.pe019
-rw-r--r-- 1 felipe users         0 Oct 22 12:24 fort.15.pe020
-rw-r--r-- 1 felipe users         0 Oct 22 12:24 fort.15.pe021
-rw-r--r-- 1 felipe users         0 Oct 22 12:24 fort.15.pe022
-rw-r--r-- 1 felipe users         0 Oct 22 12:24 fort.15.pe023
-rw-r--r-- 1 felipe users         0 Oct 22 12:24 fort.15.pe024
-rw-r--r-- 1 felipe users         0 Oct 22 12:24 fort.15.pe025
-rw-r--r-- 1 felipe users         0 Oct 22 12:24 fort.15.pe026
-rw-r--r-- 1 felipe users         0 Oct 22 12:24 fort.15.pe027
-rw-r--r-- 1 felipe users         0 Oct 22 12:24 fort.15.pe028
-rw-r--r-- 1 felipe users         0 Oct 22 12:24 fort.15.pe029
-rw-r--r-- 1 felipe users         0 Oct 22 12:24 fort.15.pe030
-rw-r--r-- 1 felipe users         0 Oct 22 12:24 fort.15.pe031
-rw-r--r-- 1 felipe users         0 Oct 22 12:24 fort.15.pe032
-rw-r--r-- 1 felipe users         0 Oct 22 12:24 fort.15.pe033
-rw-r--r-- 1 felipe users         0 Oct 22 12:24 fort.15.pe034
-rw-r--r-- 1 felipe users         0 Oct 22 12:24 fort.15.pe035
-rw-r--r-- 1 felipe users         0 Oct 22 12:24 fort.15.pe036
-rw-r--r-- 1 felipe users         0 Oct 22 12:24 fort.15.pe037
-rw-r--r-- 1 felipe users         0 Oct 22 12:24 fort.15.pe038
-rw-r--r-- 1 felipe users         0 Oct 22 12:24 fort.15.pe039
-rw-r--r-- 1 felipe users         0 Oct 22 12:24 fort.15.pe040
-rw-r--r-- 1 felipe users         0 Oct 22 12:24 fort.15.pe041
-rw-r--r-- 1 felipe users         0 Oct 22 12:24 fort.15.pe042
-rw-r--r-- 1 felipe users         0 Oct 22 12:24 fort.15.pe043
-rw-r--r-- 1 felipe users         0 Oct 22 12:24 fort.15.pe044
-rw-r--r-- 1 felipe users         0 Oct 22 12:24 fort.15.pe045
-rw-r--r-- 1 felipe users         0 Oct 22 12:24 fort.15.pe046
-rw-r--r-- 1 felipe users         0 Oct 22 12:24 fort.15.pe047
-rw-r--r-- 1 felipe users         0 Oct 22 12:24 fort.15.pe048
-rw-r--r-- 1 felipe users         0 Oct 22 12:24 fort.15.pe049
-rw-r--r-- 1 felipe users         0 Oct 22 12:24 fort.15.pe050
-rw-r--r-- 1 felipe users         0 Oct 22 12:24 fort.15.pe051
-rw-r--r-- 1 felipe users         0 Oct 22 12:24 fort.15.pe052
-rw-r--r-- 1 felipe users         0 Oct 22 12:24 fort.15.pe053
-rw-r--r-- 1 felipe users         0 Oct 22 12:24 fort.15.pe054
-rw-r--r-- 1 felipe users         0 Oct 22 12:24 fort.15.pe055
-rw-r--r-- 1 felipe users         0 Oct 22 12:24 fort.15.pe056
-rw-r--r-- 1 felipe users         0 Oct 22 12:24 fort.15.pe057
-rw-r--r-- 1 felipe users         0 Oct 22 12:24 fort.15.pe058
-rw-r--r-- 1 felipe users         0 Oct 22 12:24 fort.15.pe059
-rw-r--r-- 1 felipe users         0 Oct 22 12:24 fort.15.pe060
-rw-r--r-- 1 felipe users         0 Oct 22 12:24 fort.15.pe061
-rw-r--r-- 1 felipe users         0 Oct 22 12:24 fort.15.pe062
-rw-r--r-- 1 felipe users         0 Oct 22 12:24 fort.15.pe063
-rw-r--r-- 1 felipe users         0 Oct 22 12:24 fort.15.pe064
-rw-r--r-- 1 felipe users         0 Oct 22 12:24 fort.15.pe065
-rw-r--r-- 1 felipe users         0 Oct 22 12:24 fort.15.pe066
-rw-r--r-- 1 felipe users         0 Oct 22 12:24 fort.15.pe067
-rw-r--r-- 1 felipe users         0 Oct 22 12:24 fort.15.pe068
-rw-r--r-- 1 felipe users         0 Oct 22 12:24 fort.15.pe069
-rw-r--r-- 1 felipe users         0 Oct 22 12:24 fort.15.pe070
-rw-r--r-- 1 felipe users         0 Oct 22 12:24 fort.15.pe071
-rw-r--r-- 1 felipe users         0 Oct 22 12:24 fort.15.pe072
-rw-r--r-- 1 felipe users         0 Oct 22 12:24 fort.15.pe073
-rw-r--r-- 1 felipe users         0 Oct 22 12:24 fort.15.pe074
-rw-r--r-- 1 felipe users         0 Oct 22 12:24 fort.15.pe075
-rw-r--r-- 1 felipe users         0 Oct 22 12:24 fort.15.pe076
-rw-r--r-- 1 felipe users         0 Oct 22 12:24 fort.15.pe077
-rw-r--r-- 1 felipe users         0 Oct 22 12:24 fort.15.pe078
-rw-r--r-- 1 felipe users         0 Oct 22 12:24 fort.15.pe079
-rw-r--r-- 1 felipe users         0 Oct 22 12:24 fort.15.pe080
-rw-r--r-- 1 felipe users         0 Oct 22 12:24 fort.15.pe081
-rw-r--r-- 1 felipe users         0 Oct 22 12:24 fort.15.pe082
-rw-r--r-- 1 felipe users         0 Oct 22 12:24 fort.15.pe083
-rw-r--r-- 1 felipe users         0 Oct 22 12:24 fort.15.pe084
-rw-r--r-- 1 felipe users         0 Oct 22 12:24 fort.15.pe085
-rw-r--r-- 1 felipe users         0 Oct 22 12:24 fort.15.pe086
-rw-r--r-- 1 felipe users         0 Oct 22 12:24 fort.15.pe087
-rw-r--r-- 1 felipe users         0 Oct 22 12:24 fort.15.pe088
-rw-r--r-- 1 felipe users         0 Oct 22 12:24 fort.15.pe089
-rw-r--r-- 1 felipe users         0 Oct 22 12:24 fort.15.pe090
-rw-r--r-- 1 felipe users         0 Oct 22 12:24 fort.15.pe091
-rw-r--r-- 1 felipe users         0 Oct 22 12:24 fort.15.pe092
-rw-r--r-- 1 felipe users         0 Oct 22 12:24 fort.15.pe093
-rw-r--r-- 1 felipe users         0 Oct 22 12:24 fort.15.pe094
-rw-r--r-- 1 felipe users         0 Oct 22 12:24 fort.15.pe095
-rw-r--r-- 1 felipe users         0 Oct 22 12:24 fort.15.pe096
-rw-r--r-- 1 felipe users         0 Oct 22 12:24 fort.15.pe097
-rw-r--r-- 1 felipe users         0 Oct 22 12:24 fort.15.pe098
-rw-r--r-- 1 felipe users         0 Oct 22 12:24 fort.15.pe099
-rw-r--r-- 1 felipe users         0 Oct 22 12:24 fort.15.pe100
-rw-r--r-- 1 felipe users         0 Oct 22 12:24 fort.15.pe101
-rw-r--r-- 1 felipe users         0 Oct 22 12:24 fort.15.pe102
-rw-r--r-- 1 felipe users         0 Oct 22 12:24 fort.15.pe103
-rw-r--r-- 1 felipe users         0 Oct 22 12:24 fort.15.pe104
-rw-r--r-- 1 felipe users         0 Oct 22 12:24 fort.15.pe105
-rw-r--r-- 1 felipe users         0 Oct 22 12:24 fort.15.pe106
-rw-r--r-- 1 felipe users         0 Oct 22 12:24 fort.15.pe107
-rw-r--r-- 1 felipe users         0 Oct 22 12:24 fort.15.pe108
-rw-r--r-- 1 felipe users         0 Oct 22 12:24 fort.15.pe109
-rw-r--r-- 1 felipe users         0 Oct 22 12:24 fort.15.pe110
-rw-r--r-- 1 felipe users         0 Oct 22 12:24 fort.15.pe111
-rw-r--r-- 1 felipe users         0 Oct 22 12:24 fort.15.pe112
-rw-r--r-- 1 felipe users         0 Oct 22 12:24 fort.15.pe113
-rw-r--r-- 1 felipe users         0 Oct 22 12:24 fort.15.pe114
-rw-r--r-- 1 felipe users         0 Oct 22 12:24 fort.15.pe115
-rw-r--r-- 1 felipe users         0 Oct 22 12:24 fort.15.pe116
-rw-r--r-- 1 felipe users         0 Oct 22 12:24 fort.15.pe117
-rw-r--r-- 1 felipe users         0 Oct 22 12:24 fort.15.pe118
-rw-r--r-- 1 felipe users         0 Oct 22 12:24 fort.15.pe119
-rw-r--r-- 1 felipe users         0 Oct 22 12:24 fort.15.pe120
-rw-r--r-- 1 felipe users         0 Oct 22 12:24 fort.15.pe121
-rw-r--r-- 1 felipe users         0 Oct 22 12:24 fort.15.pe122
-rw-r--r-- 1 felipe users         0 Oct 22 12:24 fort.15.pe123
-rw-r--r-- 1 felipe users         0 Oct 22 12:24 fort.15.pe124
-rw-r--r-- 1 felipe users         0 Oct 22 12:24 fort.15.pe125
-rw-r--r-- 1 felipe users         0 Oct 22 12:24 fort.15.pe126
-rw-r--r-- 1 felipe users         0 Oct 22 12:24 fort.15.pe127
-rw-r--r-- 1 felipe users         0 Oct 22 12:24 fort.26.pe000
-rw-r--r-- 1 felipe users         0 Oct 22 12:24 fort.26.pe001
-rw-r--r-- 1 felipe users         0 Oct 22 12:24 fort.26.pe002
-rw-r--r-- 1 felipe users         0 Oct 22 12:24 fort.26.pe003
-rw-r--r-- 1 felipe users         0 Oct 22 12:24 fort.26.pe004
-rw-r--r-- 1 felipe users         0 Oct 22 12:24 fort.26.pe005
-rw-r--r-- 1 felipe users         0 Oct 22 12:24 fort.26.pe006
-rw-r--r-- 1 felipe users         0 Oct 22 12:24 fort.26.pe007
-rw-r--r-- 1 felipe users         0 Oct 22 12:24 fort.26.pe008
-rw-r--r-- 1 felipe users         0 Oct 22 12:24 fort.26.pe009
-rw-r--r-- 1 felipe users         0 Oct 22 12:24 fort.26.pe010
-rw-r--r-- 1 felipe users         0 Oct 22 12:24 fort.26.pe011
-rw-r--r-- 1 felipe users         0 Oct 22 12:24 fort.26.pe012
-rw-r--r-- 1 felipe users         0 Oct 22 12:24 fort.26.pe013
-rw-r--r-- 1 felipe users         0 Oct 22 12:24 fort.26.pe014
-rw-r--r-- 1 felipe users         0 Oct 22 12:24 fort.26.pe015
-rw-r--r-- 1 felipe users         0 Oct 22 12:24 fort.26.pe016
-rw-r--r-- 1 felipe users         0 Oct 22 12:24 fort.26.pe017
-rw-r--r-- 1 felipe users         0 Oct 22 12:24 fort.26.pe018
-rw-r--r-- 1 felipe users         0 Oct 22 12:24 fort.26.pe019
-rw-r--r-- 1 felipe users         0 Oct 22 12:24 fort.26.pe020
-rw-r--r-- 1 felipe users         0 Oct 22 12:24 fort.26.pe021
-rw-r--r-- 1 felipe users         0 Oct 22 12:24 fort.26.pe022
-rw-r--r-- 1 felipe users         0 Oct 22 12:24 fort.26.pe023
-rw-r--r-- 1 felipe users         0 Oct 22 12:24 fort.26.pe024
-rw-r--r-- 1 felipe users         0 Oct 22 12:24 fort.26.pe025
-rw-r--r-- 1 felipe users         0 Oct 22 12:24 fort.26.pe026
-rw-r--r-- 1 felipe users         0 Oct 22 12:24 fort.26.pe027
-rw-r--r-- 1 felipe users         0 Oct 22 12:24 fort.26.pe028
-rw-r--r-- 1 felipe users         0 Oct 22 12:24 fort.26.pe029
-rw-r--r-- 1 felipe users         0 Oct 22 12:24 fort.26.pe030
-rw-r--r-- 1 felipe users         0 Oct 22 12:24 fort.26.pe031
-rw-r--r-- 1 felipe users         0 Oct 22 12:24 fort.26.pe032
-rw-r--r-- 1 felipe users         0 Oct 22 12:24 fort.26.pe033
-rw-r--r-- 1 felipe users         0 Oct 22 12:24 fort.26.pe034
-rw-r--r-- 1 felipe users         0 Oct 22 12:24 fort.26.pe035
-rw-r--r-- 1 felipe users         0 Oct 22 12:24 fort.26.pe036
-rw-r--r-- 1 felipe users         0 Oct 22 12:24 fort.26.pe037
-rw-r--r-- 1 felipe users         0 Oct 22 12:24 fort.26.pe038
-rw-r--r-- 1 felipe users         0 Oct 22 12:24 fort.26.pe039
-rw-r--r-- 1 felipe users         0 Oct 22 12:24 fort.26.pe040
-rw-r--r-- 1 felipe users         0 Oct 22 12:24 fort.26.pe041
-rw-r--r-- 1 felipe users         0 Oct 22 12:24 fort.26.pe042
-rw-r--r-- 1 felipe users         0 Oct 22 12:24 fort.26.pe043
-rw-r--r-- 1 felipe users         0 Oct 22 12:24 fort.26.pe044
-rw-r--r-- 1 felipe users         0 Oct 22 12:24 fort.26.pe045
-rw-r--r-- 1 felipe users         0 Oct 22 12:24 fort.26.pe046
-rw-r--r-- 1 felipe users         0 Oct 22 12:24 fort.26.pe047
-rw-r--r-- 1 felipe users         0 Oct 22 12:24 fort.26.pe048
-rw-r--r-- 1 felipe users         0 Oct 22 12:24 fort.26.pe049
-rw-r--r-- 1 felipe users         0 Oct 22 12:24 fort.26.pe050
-rw-r--r-- 1 felipe users         0 Oct 22 12:24 fort.26.pe051
-rw-r--r-- 1 felipe users         0 Oct 22 12:24 fort.26.pe052
-rw-r--r-- 1 felipe users         0 Oct 22 12:24 fort.26.pe053
-rw-r--r-- 1 felipe users         0 Oct 22 12:24 fort.26.pe054
-rw-r--r-- 1 felipe users         0 Oct 22 12:24 fort.26.pe055
-rw-r--r-- 1 felipe users         0 Oct 22 12:24 fort.26.pe056
-rw-r--r-- 1 felipe users         0 Oct 22 12:24 fort.26.pe057
-rw-r--r-- 1 felipe users         0 Oct 22 12:24 fort.26.pe058
-rw-r--r-- 1 felipe users         0 Oct 22 12:24 fort.26.pe059
-rw-r--r-- 1 felipe users         0 Oct 22 12:24 fort.26.pe060
-rw-r--r-- 1 felipe users         0 Oct 22 12:24 fort.26.pe061
-rw-r--r-- 1 felipe users         0 Oct 22 12:24 fort.26.pe062
-rw-r--r-- 1 felipe users         0 Oct 22 12:24 fort.26.pe063
-rw-r--r-- 1 felipe users         0 Oct 22 12:24 fort.26.pe064
-rw-r--r-- 1 felipe users         0 Oct 22 12:24 fort.26.pe065
-rw-r--r-- 1 felipe users         0 Oct 22 12:24 fort.26.pe066
-rw-r--r-- 1 felipe users         0 Oct 22 12:24 fort.26.pe067
-rw-r--r-- 1 felipe users         0 Oct 22 12:24 fort.26.pe068
-rw-r--r-- 1 felipe users         0 Oct 22 12:24 fort.26.pe069
-rw-r--r-- 1 felipe users         0 Oct 22 12:24 fort.26.pe070
-rw-r--r-- 1 felipe users         0 Oct 22 12:24 fort.26.pe071
-rw-r--r-- 1 felipe users         0 Oct 22 12:24 fort.26.pe072
-rw-r--r-- 1 felipe users         0 Oct 22 12:24 fort.26.pe073
-rw-r--r-- 1 felipe users         0 Oct 22 12:24 fort.26.pe074
-rw-r--r-- 1 felipe users         0 Oct 22 12:24 fort.26.pe075
-rw-r--r-- 1 felipe users         0 Oct 22 12:24 fort.26.pe076
-rw-r--r-- 1 felipe users         0 Oct 22 12:24 fort.26.pe077
-rw-r--r-- 1 felipe users         0 Oct 22 12:24 fort.26.pe078
-rw-r--r-- 1 felipe users         0 Oct 22 12:24 fort.26.pe079
-rw-r--r-- 1 felipe users         0 Oct 22 12:24 fort.26.pe080
-rw-r--r-- 1 felipe users         0 Oct 22 12:24 fort.26.pe081
-rw-r--r-- 1 felipe users         0 Oct 22 12:24 fort.26.pe082
-rw-r--r-- 1 felipe users         0 Oct 22 12:24 fort.26.pe083
-rw-r--r-- 1 felipe users         0 Oct 22 12:24 fort.26.pe084
-rw-r--r-- 1 felipe users         0 Oct 22 12:24 fort.26.pe085
-rw-r--r-- 1 felipe users         0 Oct 22 12:24 fort.26.pe086
-rw-r--r-- 1 felipe users         0 Oct 22 12:24 fort.26.pe087
-rw-r--r-- 1 felipe users         0 Oct 22 12:24 fort.26.pe088
-rw-r--r-- 1 felipe users         0 Oct 22 12:24 fort.26.pe089
-rw-r--r-- 1 felipe users         0 Oct 22 12:24 fort.26.pe090
-rw-r--r-- 1 felipe users         0 Oct 22 12:24 fort.26.pe091
-rw-r--r-- 1 felipe users         0 Oct 22 12:24 fort.26.pe092
-rw-r--r-- 1 felipe users         0 Oct 22 12:24 fort.26.pe093
-rw-r--r-- 1 felipe users         0 Oct 22 12:24 fort.26.pe094
-rw-r--r-- 1 felipe users         0 Oct 22 12:24 fort.26.pe095
-rw-r--r-- 1 felipe users         0 Oct 22 12:24 fort.26.pe096
-rw-r--r-- 1 felipe users         0 Oct 22 12:24 fort.26.pe097
-rw-r--r-- 1 felipe users         0 Oct 22 12:24 fort.26.pe098
-rw-r--r-- 1 felipe users         0 Oct 22 12:24 fort.26.pe099
-rw-r--r-- 1 felipe users         0 Oct 22 12:24 fort.26.pe100
-rw-r--r-- 1 felipe users         0 Oct 22 12:24 fort.26.pe101
-rw-r--r-- 1 felipe users         0 Oct 22 12:24 fort.26.pe102
-rw-r--r-- 1 felipe users         0 Oct 22 12:24 fort.26.pe103
-rw-r--r-- 1 felipe users         0 Oct 22 12:24 fort.26.pe104
-rw-r--r-- 1 felipe users         0 Oct 22 12:24 fort.26.pe105
-rw-r--r-- 1 felipe users         0 Oct 22 12:24 fort.26.pe106
-rw-r--r-- 1 felipe users         0 Oct 22 12:24 fort.26.pe107
-rw-r--r-- 1 felipe users         0 Oct 22 12:24 fort.26.pe108
-rw-r--r-- 1 felipe users         0 Oct 22 12:24 fort.26.pe109
-rw-r--r-- 1 felipe users         0 Oct 22 12:24 fort.26.pe110
-rw-r--r-- 1 felipe users         0 Oct 22 12:24 fort.26.pe111
-rw-r--r-- 1 felipe users         0 Oct 22 12:24 fort.26.pe112
-rw-r--r-- 1 felipe users         0 Oct 22 12:24 fort.26.pe113
-rw-r--r-- 1 felipe users         0 Oct 22 12:24 fort.26.pe114
-rw-r--r-- 1 felipe users         0 Oct 22 12:24 fort.26.pe115
-rw-r--r-- 1 felipe users         0 Oct 22 12:24 fort.26.pe116
-rw-r--r-- 1 felipe users         0 Oct 22 12:24 fort.26.pe117
-rw-r--r-- 1 felipe users         0 Oct 22 12:24 fort.26.pe118
-rw-r--r-- 1 felipe users         0 Oct 22 12:24 fort.26.pe119
-rw-r--r-- 1 felipe users         0 Oct 22 12:24 fort.26.pe120
-rw-r--r-- 1 felipe users         0 Oct 22 12:24 fort.26.pe121
-rw-r--r-- 1 felipe users         0 Oct 22 12:24 fort.26.pe122
-rw-r--r-- 1 felipe users         0 Oct 22 12:24 fort.26.pe123
-rw-r--r-- 1 felipe users         0 Oct 22 12:24 fort.26.pe124
-rw-r--r-- 1 felipe users         0 Oct 22 12:24 fort.26.pe125
-rw-r--r-- 1 felipe users         0 Oct 22 12:24 fort.26.pe126
-rw-r--r-- 1 felipe users         0 Oct 22 12:24 fort.26.pe127
-rw-r--r-- 1 felipe users  38380228 Oct 22 14:07 fort.31
-rw-r--r-- 1 felipe users  14980536 Oct 22 12:24 fort.3.pe000
-rw-r--r-- 1 felipe users  14980536 Oct 22 12:24 fort.3.pe001
-rw-r--r-- 1 felipe users  14980536 Oct 22 12:24 fort.3.pe002
-rw-r--r-- 1 felipe users  14980536 Oct 22 12:24 fort.3.pe003
-rw-r--r-- 1 felipe users  14980536 Oct 22 12:24 fort.3.pe004
-rw-r--r-- 1 felipe users  14980536 Oct 22 12:24 fort.3.pe005
-rw-r--r-- 1 felipe users  14980536 Oct 22 12:24 fort.3.pe006
-rw-r--r-- 1 felipe users  14980536 Oct 22 12:24 fort.3.pe007
-rw-r--r-- 1 felipe users  14980536 Oct 22 12:24 fort.3.pe008
-rw-r--r-- 1 felipe users  14980536 Oct 22 12:24 fort.3.pe009
-rw-r--r-- 1 felipe users  14980536 Oct 22 12:24 fort.3.pe010
-rw-r--r-- 1 felipe users  14980536 Oct 22 12:24 fort.3.pe011
-rw-r--r-- 1 felipe users  14980536 Oct 22 12:24 fort.3.pe012
-rw-r--r-- 1 felipe users  14980536 Oct 22 12:24 fort.3.pe013
-rw-r--r-- 1 felipe users  14980536 Oct 22 12:24 fort.3.pe014
-rw-r--r-- 1 felipe users  14980536 Oct 22 12:24 fort.3.pe015
-rw-r--r-- 1 felipe users  14980536 Oct 22 12:24 fort.3.pe016
-rw-r--r-- 1 felipe users  14980536 Oct 22 12:24 fort.3.pe017
-rw-r--r-- 1 felipe users  14980536 Oct 22 12:24 fort.3.pe018
-rw-r--r-- 1 felipe users  14980536 Oct 22 12:24 fort.3.pe019
-rw-r--r-- 1 felipe users  14980536 Oct 22 12:24 fort.3.pe020
-rw-r--r-- 1 felipe users  14980536 Oct 22 12:24 fort.3.pe021
-rw-r--r-- 1 felipe users  14980536 Oct 22 12:24 fort.3.pe022
-rw-r--r-- 1 felipe users  14980536 Oct 22 12:24 fort.3.pe023
-rw-r--r-- 1 felipe users  14980536 Oct 22 12:24 fort.3.pe024
-rw-r--r-- 1 felipe users  14980536 Oct 22 12:24 fort.3.pe025
-rw-r--r-- 1 felipe users  14980536 Oct 22 12:24 fort.3.pe026
-rw-r--r-- 1 felipe users  14980536 Oct 22 12:24 fort.3.pe027
-rw-r--r-- 1 felipe users  14980536 Oct 22 12:24 fort.3.pe028
-rw-r--r-- 1 felipe users  14980536 Oct 22 12:24 fort.3.pe029
-rw-r--r-- 1 felipe users  14980536 Oct 22 12:24 fort.3.pe030
-rw-r--r-- 1 felipe users  14980536 Oct 22 12:24 fort.3.pe031
-rw-r--r-- 1 felipe users  14980536 Oct 22 12:24 fort.3.pe032
-rw-r--r-- 1 felipe users  14980536 Oct 22 12:24 fort.3.pe033
-rw-r--r-- 1 felipe users  14980536 Oct 22 12:24 fort.3.pe034
-rw-r--r-- 1 felipe users  14980536 Oct 22 12:24 fort.3.pe035
-rw-r--r-- 1 felipe users  14980536 Oct 22 12:24 fort.3.pe036
-rw-r--r-- 1 felipe users  14980536 Oct 22 12:24 fort.3.pe037
-rw-r--r-- 1 felipe users  14980536 Oct 22 12:24 fort.3.pe038
-rw-r--r-- 1 felipe users  14980536 Oct 22 12:24 fort.3.pe039
-rw-r--r-- 1 felipe users  14980536 Oct 22 12:24 fort.3.pe040
-rw-r--r-- 1 felipe users  14980536 Oct 22 12:24 fort.3.pe041
-rw-r--r-- 1 felipe users  14980536 Oct 22 12:24 fort.3.pe042
-rw-r--r-- 1 felipe users  14980536 Oct 22 12:24 fort.3.pe043
-rw-r--r-- 1 felipe users  14980536 Oct 22 12:24 fort.3.pe044
-rw-r--r-- 1 felipe users  14980536 Oct 22 12:24 fort.3.pe045
-rw-r--r-- 1 felipe users  14980536 Oct 22 12:24 fort.3.pe046
-rw-r--r-- 1 felipe users  14980536 Oct 22 12:24 fort.3.pe047
-rw-r--r-- 1 felipe users  14980536 Oct 22 12:24 fort.3.pe048
-rw-r--r-- 1 felipe users  14980536 Oct 22 12:24 fort.3.pe049
-rw-r--r-- 1 felipe users  14980536 Oct 22 12:24 fort.3.pe050
-rw-r--r-- 1 felipe users  14980536 Oct 22 12:24 fort.3.pe051
-rw-r--r-- 1 felipe users  14980536 Oct 22 12:24 fort.3.pe052
-rw-r--r-- 1 felipe users  14980536 Oct 22 12:24 fort.3.pe053
-rw-r--r-- 1 felipe users  14980536 Oct 22 12:24 fort.3.pe054
-rw-r--r-- 1 felipe users  14980536 Oct 22 12:24 fort.3.pe055
-rw-r--r-- 1 felipe users  14980536 Oct 22 12:24 fort.3.pe056
-rw-r--r-- 1 felipe users  14980536 Oct 22 12:24 fort.3.pe057
-rw-r--r-- 1 felipe users  14980536 Oct 22 12:24 fort.3.pe058
-rw-r--r-- 1 felipe users  14980536 Oct 22 12:24 fort.3.pe059
-rw-r--r-- 1 felipe users  14980536 Oct 22 12:24 fort.3.pe060
-rw-r--r-- 1 felipe users  14980536 Oct 22 12:24 fort.3.pe061
-rw-r--r-- 1 felipe users  14980536 Oct 22 12:24 fort.3.pe062
-rw-r--r-- 1 felipe users  14980536 Oct 22 12:24 fort.3.pe063
-rw-r--r-- 1 felipe users  14980536 Oct 22 12:24 fort.3.pe064
-rw-r--r-- 1 felipe users  14980536 Oct 22 12:24 fort.3.pe065
-rw-r--r-- 1 felipe users  14980536 Oct 22 12:24 fort.3.pe066
-rw-r--r-- 1 felipe users  14980536 Oct 22 12:24 fort.3.pe067
-rw-r--r-- 1 felipe users  14980536 Oct 22 12:24 fort.3.pe068
-rw-r--r-- 1 felipe users  14980536 Oct 22 12:24 fort.3.pe069
-rw-r--r-- 1 felipe users  14980536 Oct 22 12:24 fort.3.pe070
-rw-r--r-- 1 felipe users  14980536 Oct 22 12:24 fort.3.pe071
-rw-r--r-- 1 felipe users  14980536 Oct 22 12:24 fort.3.pe072
-rw-r--r-- 1 felipe users  14980536 Oct 22 12:24 fort.3.pe073
-rw-r--r-- 1 felipe users  14980536 Oct 22 12:24 fort.3.pe074
-rw-r--r-- 1 felipe users  14980536 Oct 22 12:24 fort.3.pe075
-rw-r--r-- 1 felipe users  14980536 Oct 22 12:24 fort.3.pe076
-rw-r--r-- 1 felipe users  14980536 Oct 22 12:24 fort.3.pe077
-rw-r--r-- 1 felipe users  14980536 Oct 22 12:24 fort.3.pe078
-rw-r--r-- 1 felipe users  14980536 Oct 22 12:24 fort.3.pe079
-rw-r--r-- 1 felipe users  14980536 Oct 22 12:24 fort.3.pe080
-rw-r--r-- 1 felipe users  14980536 Oct 22 12:24 fort.3.pe081
-rw-r--r-- 1 felipe users  14980536 Oct 22 12:24 fort.3.pe082
-rw-r--r-- 1 felipe users  14980536 Oct 22 12:24 fort.3.pe083
-rw-r--r-- 1 felipe users  14980536 Oct 22 12:24 fort.3.pe084
-rw-r--r-- 1 felipe users  14980536 Oct 22 12:24 fort.3.pe085
-rw-r--r-- 1 felipe users  14980536 Oct 22 12:24 fort.3.pe086
-rw-r--r-- 1 felipe users  14980536 Oct 22 12:24 fort.3.pe087
-rw-r--r-- 1 felipe users  14980536 Oct 22 12:24 fort.3.pe088
-rw-r--r-- 1 felipe users  14980536 Oct 22 12:24 fort.3.pe089
-rw-r--r-- 1 felipe users  14980536 Oct 22 12:24 fort.3.pe090
-rw-r--r-- 1 felipe users  14980536 Oct 22 12:24 fort.3.pe091
-rw-r--r-- 1 felipe users  14980536 Oct 22 12:24 fort.3.pe092
-rw-r--r-- 1 felipe users  14980536 Oct 22 12:24 fort.3.pe093
-rw-r--r-- 1 felipe users  14980536 Oct 22 12:24 fort.3.pe094
-rw-r--r-- 1 felipe users  14980536 Oct 22 12:24 fort.3.pe095
-rw-r--r-- 1 felipe users  14980536 Oct 22 12:24 fort.3.pe096
-rw-r--r-- 1 felipe users  14980536 Oct 22 12:24 fort.3.pe097
-rw-r--r-- 1 felipe users  14980536 Oct 22 12:24 fort.3.pe098
-rw-r--r-- 1 felipe users  14980536 Oct 22 12:24 fort.3.pe099
-rw-r--r-- 1 felipe users  14980536 Oct 22 12:24 fort.3.pe100
-rw-r--r-- 1 felipe users  14980536 Oct 22 12:24 fort.3.pe101
-rw-r--r-- 1 felipe users  14980536 Oct 22 12:24 fort.3.pe102
-rw-r--r-- 1 felipe users  14980536 Oct 22 12:24 fort.3.pe103
-rw-r--r-- 1 felipe users  14980536 Oct 22 12:24 fort.3.pe104
-rw-r--r-- 1 felipe users  14980536 Oct 22 12:24 fort.3.pe105
-rw-r--r-- 1 felipe users  14980536 Oct 22 12:24 fort.3.pe106
-rw-r--r-- 1 felipe users  14980536 Oct 22 12:24 fort.3.pe107
-rw-r--r-- 1 felipe users  14980536 Oct 22 12:24 fort.3.pe108
-rw-r--r-- 1 felipe users  14980536 Oct 22 12:24 fort.3.pe109
-rw-r--r-- 1 felipe users  14980536 Oct 22 12:24 fort.3.pe110
-rw-r--r-- 1 felipe users  14980536 Oct 22 12:24 fort.3.pe111
-rw-r--r-- 1 felipe users  14980536 Oct 22 12:24 fort.3.pe112
-rw-r--r-- 1 felipe users  14980536 Oct 22 12:24 fort.3.pe113
-rw-r--r-- 1 felipe users  14980536 Oct 22 12:24 fort.3.pe114
-rw-r--r-- 1 felipe users  14980536 Oct 22 12:24 fort.3.pe115
-rw-r--r-- 1 felipe users  14980536 Oct 22 12:24 fort.3.pe116
-rw-r--r-- 1 felipe users  14980536 Oct 22 12:24 fort.3.pe117
-rw-r--r-- 1 felipe users  14980536 Oct 22 12:24 fort.3.pe118
-rw-r--r-- 1 felipe users  14980536 Oct 22 12:24 fort.3.pe119
-rw-r--r-- 1 felipe users  14980536 Oct 22 12:24 fort.3.pe120
-rw-r--r-- 1 felipe users  14980536 Oct 22 12:24 fort.3.pe121
-rw-r--r-- 1 felipe users  14980536 Oct 22 12:24 fort.3.pe122
-rw-r--r-- 1 felipe users  14980536 Oct 22 12:24 fort.3.pe123
-rw-r--r-- 1 felipe users  14980536 Oct 22 12:24 fort.3.pe124
-rw-r--r-- 1 felipe users  14980536 Oct 22 12:24 fort.3.pe125
-rw-r--r-- 1 felipe users  14980536 Oct 22 12:24 fort.3.pe126
-rw-r--r-- 1 felipe users  14980536 Oct 22 12:24 fort.3.pe127
-rw-r--r-- 1 felipe users         0 Oct 22 12:24 fort.61.pe000
-rw-r--r-- 1 felipe users         0 Oct 22 12:24 fort.61.pe001
-rw-r--r-- 1 felipe users         0 Oct 22 12:24 fort.61.pe002
-rw-r--r-- 1 felipe users         0 Oct 22 12:24 fort.61.pe003
-rw-r--r-- 1 felipe users         0 Oct 22 12:24 fort.61.pe004
-rw-r--r-- 1 felipe users         0 Oct 22 12:24 fort.61.pe005
-rw-r--r-- 1 felipe users         0 Oct 22 12:24 fort.61.pe006
-rw-r--r-- 1 felipe users         0 Oct 22 12:24 fort.61.pe007
-rw-r--r-- 1 felipe users         0 Oct 22 12:24 fort.61.pe008
-rw-r--r-- 1 felipe users         0 Oct 22 12:24 fort.61.pe009
-rw-r--r-- 1 felipe users         0 Oct 22 12:24 fort.61.pe010
-rw-r--r-- 1 felipe users         0 Oct 22 12:24 fort.61.pe011
-rw-r--r-- 1 felipe users         0 Oct 22 12:24 fort.61.pe012
-rw-r--r-- 1 felipe users         0 Oct 22 12:24 fort.61.pe013
-rw-r--r-- 1 felipe users         0 Oct 22 12:24 fort.61.pe014
-rw-r--r-- 1 felipe users         0 Oct 22 12:24 fort.61.pe015
-rw-r--r-- 1 felipe users         0 Oct 22 12:24 fort.61.pe016
-rw-r--r-- 1 felipe users         0 Oct 22 12:24 fort.61.pe017
-rw-r--r-- 1 felipe users         0 Oct 22 12:24 fort.61.pe018
-rw-r--r-- 1 felipe users         0 Oct 22 12:24 fort.61.pe019
-rw-r--r-- 1 felipe users         0 Oct 22 12:24 fort.61.pe020
-rw-r--r-- 1 felipe users         0 Oct 22 12:24 fort.61.pe021
-rw-r--r-- 1 felipe users         0 Oct 22 12:24 fort.61.pe022
-rw-r--r-- 1 felipe users         0 Oct 22 12:24 fort.61.pe023
-rw-r--r-- 1 felipe users         0 Oct 22 12:24 fort.61.pe024
-rw-r--r-- 1 felipe users         0 Oct 22 12:24 fort.61.pe025
-rw-r--r-- 1 felipe users         0 Oct 22 12:24 fort.61.pe026
-rw-r--r-- 1 felipe users         0 Oct 22 12:24 fort.61.pe027
-rw-r--r-- 1 felipe users         0 Oct 22 12:24 fort.61.pe028
-rw-r--r-- 1 felipe users         0 Oct 22 12:24 fort.61.pe029
-rw-r--r-- 1 felipe users         0 Oct 22 12:24 fort.61.pe030
-rw-r--r-- 1 felipe users         0 Oct 22 12:24 fort.61.pe031
-rw-r--r-- 1 felipe users         0 Oct 22 12:24 fort.61.pe032
-rw-r--r-- 1 felipe users         0 Oct 22 12:24 fort.61.pe033
-rw-r--r-- 1 felipe users         0 Oct 22 12:24 fort.61.pe034
-rw-r--r-- 1 felipe users         0 Oct 22 12:24 fort.61.pe035
-rw-r--r-- 1 felipe users         0 Oct 22 12:24 fort.61.pe036
-rw-r--r-- 1 felipe users         0 Oct 22 12:24 fort.61.pe037
-rw-r--r-- 1 felipe users         0 Oct 22 12:24 fort.61.pe038
-rw-r--r-- 1 felipe users         0 Oct 22 12:24 fort.61.pe039
-rw-r--r-- 1 felipe users         0 Oct 22 12:24 fort.61.pe040
-rw-r--r-- 1 felipe users         0 Oct 22 12:24 fort.61.pe041
-rw-r--r-- 1 felipe users         0 Oct 22 12:24 fort.61.pe042
-rw-r--r-- 1 felipe users         0 Oct 22 12:24 fort.61.pe043
-rw-r--r-- 1 felipe users         0 Oct 22 12:24 fort.61.pe044
-rw-r--r-- 1 felipe users         0 Oct 22 12:24 fort.61.pe045
-rw-r--r-- 1 felipe users         0 Oct 22 12:24 fort.61.pe046
-rw-r--r-- 1 felipe users         0 Oct 22 12:24 fort.61.pe047
-rw-r--r-- 1 felipe users         0 Oct 22 12:24 fort.61.pe048
-rw-r--r-- 1 felipe users         0 Oct 22 12:24 fort.61.pe049
-rw-r--r-- 1 felipe users         0 Oct 22 12:24 fort.61.pe050
-rw-r--r-- 1 felipe users         0 Oct 22 12:24 fort.61.pe051
-rw-r--r-- 1 felipe users         0 Oct 22 12:24 fort.61.pe052
-rw-r--r-- 1 felipe users         0 Oct 22 12:24 fort.61.pe053
-rw-r--r-- 1 felipe users         0 Oct 22 12:24 fort.61.pe054
-rw-r--r-- 1 felipe users         0 Oct 22 12:24 fort.61.pe055
-rw-r--r-- 1 felipe users         0 Oct 22 12:24 fort.61.pe056
-rw-r--r-- 1 felipe users         0 Oct 22 12:24 fort.61.pe057
-rw-r--r-- 1 felipe users         0 Oct 22 12:24 fort.61.pe058
-rw-r--r-- 1 felipe users         0 Oct 22 12:24 fort.61.pe059
-rw-r--r-- 1 felipe users         0 Oct 22 12:24 fort.61.pe060
-rw-r--r-- 1 felipe users         0 Oct 22 12:24 fort.61.pe061
-rw-r--r-- 1 felipe users         0 Oct 22 12:24 fort.61.pe062
-rw-r--r-- 1 felipe users         0 Oct 22 12:24 fort.61.pe063
-rw-r--r-- 1 felipe users         0 Oct 22 12:24 fort.61.pe064
-rw-r--r-- 1 felipe users         0 Oct 22 12:24 fort.61.pe065
-rw-r--r-- 1 felipe users         0 Oct 22 12:24 fort.61.pe066
-rw-r--r-- 1 felipe users         0 Oct 22 12:24 fort.61.pe067
-rw-r--r-- 1 felipe users         0 Oct 22 12:24 fort.61.pe068
-rw-r--r-- 1 felipe users         0 Oct 22 12:24 fort.61.pe069
-rw-r--r-- 1 felipe users         0 Oct 22 12:24 fort.61.pe070
-rw-r--r-- 1 felipe users         0 Oct 22 12:24 fort.61.pe071
-rw-r--r-- 1 felipe users         0 Oct 22 12:24 fort.61.pe072
-rw-r--r-- 1 felipe users         0 Oct 22 12:24 fort.61.pe073
-rw-r--r-- 1 felipe users         0 Oct 22 12:24 fort.61.pe074
-rw-r--r-- 1 felipe users         0 Oct 22 12:24 fort.61.pe075
-rw-r--r-- 1 felipe users         0 Oct 22 12:24 fort.61.pe076
-rw-r--r-- 1 felipe users         0 Oct 22 12:24 fort.61.pe077
-rw-r--r-- 1 felipe users         0 Oct 22 12:24 fort.61.pe078
-rw-r--r-- 1 felipe users         0 Oct 22 12:24 fort.61.pe079
-rw-r--r-- 1 felipe users         0 Oct 22 12:24 fort.61.pe080
-rw-r--r-- 1 felipe users         0 Oct 22 12:24 fort.61.pe081
-rw-r--r-- 1 felipe users         0 Oct 22 12:24 fort.61.pe082
-rw-r--r-- 1 felipe users         0 Oct 22 12:24 fort.61.pe083
-rw-r--r-- 1 felipe users         0 Oct 22 12:24 fort.61.pe084
-rw-r--r-- 1 felipe users         0 Oct 22 12:24 fort.61.pe085
-rw-r--r-- 1 felipe users         0 Oct 22 12:24 fort.61.pe086
-rw-r--r-- 1 felipe users         0 Oct 22 12:24 fort.61.pe087
-rw-r--r-- 1 felipe users         0 Oct 22 12:24 fort.61.pe088
-rw-r--r-- 1 felipe users         0 Oct 22 12:24 fort.61.pe089
-rw-r--r-- 1 felipe users         0 Oct 22 12:24 fort.61.pe090
-rw-r--r-- 1 felipe users         0 Oct 22 12:24 fort.61.pe091
-rw-r--r-- 1 felipe users         0 Oct 22 12:24 fort.61.pe092
-rw-r--r-- 1 felipe users         0 Oct 22 12:24 fort.61.pe093
-rw-r--r-- 1 felipe users         0 Oct 22 12:24 fort.61.pe094
-rw-r--r-- 1 felipe users         0 Oct 22 12:24 fort.61.pe095
-rw-r--r-- 1 felipe users         0 Oct 22 12:24 fort.61.pe096
-rw-r--r-- 1 felipe users         0 Oct 22 12:24 fort.61.pe097
-rw-r--r-- 1 felipe users         0 Oct 22 12:24 fort.61.pe098
-rw-r--r-- 1 felipe users         0 Oct 22 12:24 fort.61.pe099
-rw-r--r-- 1 felipe users         0 Oct 22 12:24 fort.61.pe100
-rw-r--r-- 1 felipe users         0 Oct 22 12:24 fort.61.pe101
-rw-r--r-- 1 felipe users         0 Oct 22 12:24 fort.61.pe102
-rw-r--r-- 1 felipe users         0 Oct 22 12:24 fort.61.pe103
-rw-r--r-- 1 felipe users         0 Oct 22 12:24 fort.61.pe104
-rw-r--r-- 1 felipe users         0 Oct 22 12:24 fort.61.pe105
-rw-r--r-- 1 felipe users         0 Oct 22 12:24 fort.61.pe106
-rw-r--r-- 1 felipe users         0 Oct 22 12:24 fort.61.pe107
-rw-r--r-- 1 felipe users         0 Oct 22 12:24 fort.61.pe108
-rw-r--r-- 1 felipe users         0 Oct 22 12:24 fort.61.pe109
-rw-r--r-- 1 felipe users         0 Oct 22 12:24 fort.61.pe110
-rw-r--r-- 1 felipe users         0 Oct 22 12:24 fort.61.pe111
-rw-r--r-- 1 felipe users         0 Oct 22 12:24 fort.61.pe112
-rw-r--r-- 1 felipe users         0 Oct 22 12:24 fort.61.pe113
-rw-r--r-- 1 felipe users         0 Oct 22 12:24 fort.61.pe114
-rw-r--r-- 1 felipe users         0 Oct 22 12:24 fort.61.pe115
-rw-r--r-- 1 felipe users         0 Oct 22 12:24 fort.61.pe116
-rw-r--r-- 1 felipe users         0 Oct 22 12:24 fort.61.pe117
-rw-r--r-- 1 felipe users         0 Oct 22 12:24 fort.61.pe118
-rw-r--r-- 1 felipe users         0 Oct 22 12:24 fort.61.pe119
-rw-r--r-- 1 felipe users         0 Oct 22 12:24 fort.61.pe120
-rw-r--r-- 1 felipe users         0 Oct 22 12:24 fort.61.pe121
-rw-r--r-- 1 felipe users         0 Oct 22 12:24 fort.61.pe122
-rw-r--r-- 1 felipe users         0 Oct 22 12:24 fort.61.pe123
-rw-r--r-- 1 felipe users         0 Oct 22 12:24 fort.61.pe124
-rw-r--r-- 1 felipe users         0 Oct 22 12:24 fort.61.pe125
-rw-r--r-- 1 felipe users         0 Oct 22 12:24 fort.61.pe126
-rw-r--r-- 1 felipe users         0 Oct 22 12:24 fort.61.pe127
-rw-r--r-- 1 felipe users         0 Oct 22 12:24 fort.62.pe000
-rw-r--r-- 1 felipe users         0 Oct 22 12:24 fort.62.pe001
-rw-r--r-- 1 felipe users         0 Oct 22 12:24 fort.62.pe002
-rw-r--r-- 1 felipe users         0 Oct 22 12:24 fort.62.pe003
-rw-r--r-- 1 felipe users         0 Oct 22 12:24 fort.62.pe004
-rw-r--r-- 1 felipe users         0 Oct 22 12:24 fort.62.pe005
-rw-r--r-- 1 felipe users         0 Oct 22 12:24 fort.62.pe006
-rw-r--r-- 1 felipe users         0 Oct 22 12:24 fort.62.pe007
-rw-r--r-- 1 felipe users         0 Oct 22 12:24 fort.62.pe008
-rw-r--r-- 1 felipe users         0 Oct 22 12:24 fort.62.pe009
-rw-r--r-- 1 felipe users         0 Oct 22 12:24 fort.62.pe010
-rw-r--r-- 1 felipe users         0 Oct 22 12:24 fort.62.pe011
-rw-r--r-- 1 felipe users         0 Oct 22 12:24 fort.62.pe012
-rw-r--r-- 1 felipe users         0 Oct 22 12:24 fort.62.pe013
-rw-r--r-- 1 felipe users         0 Oct 22 12:24 fort.62.pe014
-rw-r--r-- 1 felipe users         0 Oct 22 12:24 fort.62.pe015
-rw-r--r-- 1 felipe users         0 Oct 22 12:24 fort.62.pe016
-rw-r--r-- 1 felipe users         0 Oct 22 12:24 fort.62.pe017
-rw-r--r-- 1 felipe users         0 Oct 22 12:24 fort.62.pe018
-rw-r--r-- 1 felipe users         0 Oct 22 12:24 fort.62.pe019
-rw-r--r-- 1 felipe users         0 Oct 22 12:24 fort.62.pe020
-rw-r--r-- 1 felipe users         0 Oct 22 12:24 fort.62.pe021
-rw-r--r-- 1 felipe users         0 Oct 22 12:24 fort.62.pe022
-rw-r--r-- 1 felipe users         0 Oct 22 12:24 fort.62.pe023
-rw-r--r-- 1 felipe users         0 Oct 22 12:24 fort.62.pe024
-rw-r--r-- 1 felipe users         0 Oct 22 12:24 fort.62.pe025
-rw-r--r-- 1 felipe users         0 Oct 22 12:24 fort.62.pe026
-rw-r--r-- 1 felipe users         0 Oct 22 12:24 fort.62.pe027
-rw-r--r-- 1 felipe users         0 Oct 22 12:24 fort.62.pe028
-rw-r--r-- 1 felipe users         0 Oct 22 12:24 fort.62.pe029
-rw-r--r-- 1 felipe users         0 Oct 22 12:24 fort.62.pe030
-rw-r--r-- 1 felipe users         0 Oct 22 12:24 fort.62.pe031
-rw-r--r-- 1 felipe users         0 Oct 22 12:24 fort.62.pe032
-rw-r--r-- 1 felipe users         0 Oct 22 12:24 fort.62.pe033
-rw-r--r-- 1 felipe users         0 Oct 22 12:24 fort.62.pe034
-rw-r--r-- 1 felipe users         0 Oct 22 12:24 fort.62.pe035
-rw-r--r-- 1 felipe users         0 Oct 22 12:24 fort.62.pe036
-rw-r--r-- 1 felipe users         0 Oct 22 12:24 fort.62.pe037
-rw-r--r-- 1 felipe users         0 Oct 22 12:24 fort.62.pe038
-rw-r--r-- 1 felipe users         0 Oct 22 12:24 fort.62.pe039
-rw-r--r-- 1 felipe users         0 Oct 22 12:24 fort.62.pe040
-rw-r--r-- 1 felipe users         0 Oct 22 12:24 fort.62.pe041
-rw-r--r-- 1 felipe users         0 Oct 22 12:24 fort.62.pe042
-rw-r--r-- 1 felipe users         0 Oct 22 12:24 fort.62.pe043
-rw-r--r-- 1 felipe users         0 Oct 22 12:24 fort.62.pe044
-rw-r--r-- 1 felipe users         0 Oct 22 12:24 fort.62.pe045
-rw-r--r-- 1 felipe users         0 Oct 22 12:24 fort.62.pe046
-rw-r--r-- 1 felipe users         0 Oct 22 12:24 fort.62.pe047
-rw-r--r-- 1 felipe users         0 Oct 22 12:24 fort.62.pe048
-rw-r--r-- 1 felipe users         0 Oct 22 12:24 fort.62.pe049
-rw-r--r-- 1 felipe users         0 Oct 22 12:24 fort.62.pe050
-rw-r--r-- 1 felipe users         0 Oct 22 12:24 fort.62.pe051
-rw-r--r-- 1 felipe users         0 Oct 22 12:24 fort.62.pe052
-rw-r--r-- 1 felipe users         0 Oct 22 12:24 fort.62.pe053
-rw-r--r-- 1 felipe users         0 Oct 22 12:24 fort.62.pe054
-rw-r--r-- 1 felipe users         0 Oct 22 12:24 fort.62.pe055
-rw-r--r-- 1 felipe users         0 Oct 22 12:24 fort.62.pe056
-rw-r--r-- 1 felipe users         0 Oct 22 12:24 fort.62.pe057
-rw-r--r-- 1 felipe users         0 Oct 22 12:24 fort.62.pe058
-rw-r--r-- 1 felipe users         0 Oct 22 12:24 fort.62.pe059
[...]
-rw-r--r-- 1 felipe users         0 Oct 22 12:24 fort.75.pe078
-rw-r--r-- 1 felipe users         0 Oct 22 12:24 fort.75.pe079
-rw-r--r-- 1 felipe users         0 Oct 22 12:24 fort.75.pe080
-rw-r--r-- 1 felipe users         0 Oct 22 12:24 fort.75.pe081
-rw-r--r-- 1 felipe users         0 Oct 22 12:24 fort.75.pe082
-rw-r--r-- 1 felipe users         0 Oct 22 12:24 fort.75.pe083
-rw-r--r-- 1 felipe users         0 Oct 22 12:24 fort.75.pe084
-rw-r--r-- 1 felipe users         0 Oct 22 12:24 fort.75.pe085
-rw-r--r-- 1 felipe users         0 Oct 22 12:24 fort.75.pe086
-rw-r--r-- 1 felipe users         0 Oct 22 12:24 fort.75.pe087
-rw-r--r-- 1 felipe users         0 Oct 22 12:24 fort.75.pe088
-rw-r--r-- 1 felipe users         0 Oct 22 12:24 fort.75.pe089
-rw-r--r-- 1 felipe users         0 Oct 22 12:24 fort.75.pe090
-rw-r--r-- 1 felipe users         0 Oct 22 12:24 fort.75.pe091
-rw-r--r-- 1 felipe users         0 Oct 22 12:24 fort.75.pe092
-rw-r--r-- 1 felipe users         0 Oct 22 12:24 fort.75.pe093
-rw-r--r-- 1 felipe users         0 Oct 22 12:24 fort.75.pe094
-rw-r--r-- 1 felipe users         0 Oct 22 12:24 fort.75.pe095
-rw-r--r-- 1 felipe users         0 Oct 22 12:24 fort.75.pe096
-rw-r--r-- 1 felipe users         0 Oct 22 12:24 fort.75.pe097
-rw-r--r-- 1 felipe users         0 Oct 22 12:24 fort.75.pe098
-rw-r--r-- 1 felipe users         0 Oct 22 12:24 fort.75.pe099
-rw-r--r-- 1 felipe users         0 Oct 22 12:24 fort.75.pe100
-rw-r--r-- 1 felipe users         0 Oct 22 12:24 fort.75.pe101
-rw-r--r-- 1 felipe users         0 Oct 22 12:24 fort.75.pe102
-rw-r--r-- 1 felipe users         0 Oct 22 12:24 fort.75.pe103
-rw-r--r-- 1 felipe users         0 Oct 22 12:24 fort.75.pe104
-rw-r--r-- 1 felipe users         0 Oct 22 12:24 fort.75.pe105
-rw-r--r-- 1 felipe users         0 Oct 22 12:24 fort.75.pe106
-rw-r--r-- 1 felipe users         0 Oct 22 12:24 fort.75.pe107
-rw-r--r-- 1 felipe users         0 Oct 22 12:24 fort.75.pe108
-rw-r--r-- 1 felipe users         0 Oct 22 12:24 fort.75.pe109
-rw-r--r-- 1 felipe users         0 Oct 22 12:24 fort.75.pe110
-rw-r--r-- 1 felipe users         0 Oct 22 12:24 fort.75.pe111
-rw-r--r-- 1 felipe users         0 Oct 22 12:24 fort.75.pe112
-rw-r--r-- 1 felipe users         0 Oct 22 12:24 fort.75.pe113
-rw-r--r-- 1 felipe users         0 Oct 22 12:24 fort.75.pe114
-rw-r--r-- 1 felipe users         0 Oct 22 12:24 fort.75.pe115
-rw-r--r-- 1 felipe users         0 Oct 22 12:24 fort.75.pe116
-rw-r--r-- 1 felipe users         0 Oct 22 12:24 fort.75.pe117
-rw-r--r-- 1 felipe users         0 Oct 22 12:24 fort.75.pe118
-rw-r--r-- 1 felipe users         0 Oct 22 12:24 fort.75.pe119
-rw-r--r-- 1 felipe users         0 Oct 22 12:24 fort.75.pe120
-rw-r--r-- 1 felipe users         0 Oct 22 12:24 fort.75.pe121
-rw-r--r-- 1 felipe users         0 Oct 22 12:24 fort.75.pe122
-rw-r--r-- 1 felipe users         0 Oct 22 12:24 fort.75.pe123
-rw-r--r-- 1 felipe users         0 Oct 22 12:24 fort.75.pe124
-rw-r--r-- 1 felipe users         0 Oct 22 12:24 fort.75.pe125
-rw-r--r-- 1 felipe users         0 Oct 22 12:24 fort.75.pe126
-rw-r--r-- 1 felipe users         0 Oct 22 12:24 fort.75.pe127
-rw-r--r-- 1 felipe users         0 Oct 22 12:24 fort.77.pe000
-rw-r--r-- 1 felipe users         0 Oct 22 12:24 fort.77.pe001
-rw-r--r-- 1 felipe users         0 Oct 22 12:24 fort.77.pe002
-rw-r--r-- 1 felipe users         0 Oct 22 12:24 fort.77.pe003
-rw-r--r-- 1 felipe users         0 Oct 22 12:24 fort.77.pe004
-rw-r--r-- 1 felipe users         0 Oct 22 12:24 fort.77.pe005
-rw-r--r-- 1 felipe users         0 Oct 22 12:24 fort.77.pe006
-rw-r--r-- 1 felipe users         0 Oct 22 12:24 fort.77.pe007
-rw-r--r-- 1 felipe users         0 Oct 22 12:24 fort.77.pe008
-rw-r--r-- 1 felipe users         0 Oct 22 12:24 fort.77.pe009
-rw-r--r-- 1 felipe users         0 Oct 22 12:24 fort.77.pe010
-rw-r--r-- 1 felipe users         0 Oct 22 12:24 fort.77.pe011
-rw-r--r-- 1 felipe users         0 Oct 22 12:24 fort.77.pe012
-rw-r--r-- 1 felipe users         0 Oct 22 12:24 fort.77.pe013
-rw-r--r-- 1 felipe users         0 Oct 22 12:24 fort.77.pe014
-rw-r--r-- 1 felipe users         0 Oct 22 12:24 fort.77.pe015
-rw-r--r-- 1 felipe users         0 Oct 22 12:24 fort.77.pe016
-rw-r--r-- 1 felipe users         0 Oct 22 12:24 fort.77.pe017
-rw-r--r-- 1 felipe users         0 Oct 22 12:24 fort.77.pe018
-rw-r--r-- 1 felipe users         0 Oct 22 12:24 fort.77.pe019
-rw-r--r-- 1 felipe users         0 Oct 22 12:24 fort.77.pe020
-rw-r--r-- 1 felipe users         0 Oct 22 12:24 fort.77.pe021
-rw-r--r-- 1 felipe users         0 Oct 22 12:24 fort.77.pe022
-rw-r--r-- 1 felipe users         0 Oct 22 12:24 fort.77.pe023
-rw-r--r-- 1 felipe users         0 Oct 22 12:24 fort.77.pe024
-rw-r--r-- 1 felipe users         0 Oct 22 12:24 fort.77.pe025
-rw-r--r-- 1 felipe users         0 Oct 22 12:24 fort.77.pe026
-rw-r--r-- 1 felipe users         0 Oct 22 12:24 fort.77.pe027
-rw-r--r-- 1 felipe users         0 Oct 22 12:24 fort.77.pe028
-rw-r--r-- 1 felipe users         0 Oct 22 12:24 fort.77.pe029
-rw-r--r-- 1 felipe users         0 Oct 22 12:24 fort.77.pe030
-rw-r--r-- 1 felipe users         0 Oct 22 12:24 fort.77.pe031
-rw-r--r-- 1 felipe users         0 Oct 22 12:24 fort.77.pe032
-rw-r--r-- 1 felipe users         0 Oct 22 12:24 fort.77.pe033
-rw-r--r-- 1 felipe users         0 Oct 22 12:24 fort.77.pe034
-rw-r--r-- 1 felipe users         0 Oct 22 12:24 fort.77.pe035
-rw-r--r-- 1 felipe users         0 Oct 22 12:24 fort.77.pe036
-rw-r--r-- 1 felipe users         0 Oct 22 12:24 fort.77.pe037
-rw-r--r-- 1 felipe users         0 Oct 22 12:24 fort.77.pe038
-rw-r--r-- 1 felipe users         0 Oct 22 12:24 fort.77.pe039
-rw-r--r-- 1 felipe users         0 Oct 22 12:24 fort.77.pe040
-rw-r--r-- 1 felipe users         0 Oct 22 12:24 fort.77.pe041
-rw-r--r-- 1 felipe users         0 Oct 22 12:24 fort.77.pe042
-rw-r--r-- 1 felipe users         0 Oct 22 12:24 fort.77.pe043
-rw-r--r-- 1 felipe users         0 Oct 22 12:24 fort.77.pe044
-rw-r--r-- 1 felipe users         0 Oct 22 12:24 fort.77.pe045
-rw-r--r-- 1 felipe users         0 Oct 22 12:24 fort.77.pe046
-rw-r--r-- 1 felipe users         0 Oct 22 12:24 fort.77.pe047
-rw-r--r-- 1 felipe users         0 Oct 22 12:24 fort.77.pe048
-rw-r--r-- 1 felipe users         0 Oct 22 12:24 fort.77.pe049
-rw-r--r-- 1 felipe users         0 Oct 22 12:24 fort.77.pe050
-rw-r--r-- 1 felipe users         0 Oct 22 12:24 fort.77.pe051
-rw-r--r-- 1 felipe users         0 Oct 22 12:24 fort.77.pe052
-rw-r--r-- 1 felipe users         0 Oct 22 12:24 fort.77.pe053
-rw-r--r-- 1 felipe users         0 Oct 22 12:24 fort.77.pe054
-rw-r--r-- 1 felipe users         0 Oct 22 12:24 fort.77.pe055
-rw-r--r-- 1 felipe users         0 Oct 22 12:24 fort.77.pe056
-rw-r--r-- 1 felipe users         0 Oct 22 12:24 fort.77.pe057
-rw-r--r-- 1 felipe users         0 Oct 22 12:24 fort.77.pe058
-rw-r--r-- 1 felipe users         0 Oct 22 12:24 fort.77.pe059
-rw-r--r-- 1 felipe users         0 Oct 22 12:24 fort.77.pe060
-rw-r--r-- 1 felipe users         0 Oct 22 12:24 fort.77.pe061
-rw-r--r-- 1 felipe users         0 Oct 22 12:24 fort.77.pe062
-rw-r--r-- 1 felipe users         0 Oct 22 12:24 fort.77.pe063
-rw-r--r-- 1 felipe users         0 Oct 22 12:24 fort.77.pe064
-rw-r--r-- 1 felipe users         0 Oct 22 12:24 fort.77.pe065
-rw-r--r-- 1 felipe users         0 Oct 22 12:24 fort.77.pe066
-rw-r--r-- 1 felipe users         0 Oct 22 12:24 fort.77.pe067
-rw-r--r-- 1 felipe users         0 Oct 22 12:24 fort.77.pe068
-rw-r--r-- 1 felipe users         0 Oct 22 12:24 fort.77.pe069
-rw-r--r-- 1 felipe users         0 Oct 22 12:24 fort.77.pe070
-rw-r--r-- 1 felipe users         0 Oct 22 12:24 fort.77.pe071
-rw-r--r-- 1 felipe users         0 Oct 22 12:24 fort.77.pe072
-rw-r--r-- 1 felipe users         0 Oct 22 12:24 fort.77.pe073
-rw-r--r-- 1 felipe users         0 Oct 22 12:24 fort.77.pe074
-rw-r--r-- 1 felipe users         0 Oct 22 12:24 fort.77.pe075
-rw-r--r-- 1 felipe users         0 Oct 22 12:24 fort.77.pe076
-rw-r--r-- 1 felipe users         0 Oct 22 12:24 fort.77.pe077
-rw-r--r-- 1 felipe users         0 Oct 22 12:24 fort.77.pe078
-rw-r--r-- 1 felipe users         0 Oct 22 12:24 fort.77.pe079
-rw-r--r-- 1 felipe users         0 Oct 22 12:24 fort.77.pe080
-rw-r--r-- 1 felipe users         0 Oct 22 12:24 fort.77.pe081
-rw-r--r-- 1 felipe users         0 Oct 22 12:24 fort.77.pe082
-rw-r--r-- 1 felipe users         0 Oct 22 12:24 fort.77.pe083
-rw-r--r-- 1 felipe users         0 Oct 22 12:24 fort.77.pe084
-rw-r--r-- 1 felipe users         0 Oct 22 12:24 fort.77.pe085
-rw-r--r-- 1 felipe users         0 Oct 22 12:24 fort.77.pe086
-rw-r--r-- 1 felipe users         0 Oct 22 12:24 fort.77.pe087
-rw-r--r-- 1 felipe users         0 Oct 22 12:24 fort.77.pe088
-rw-r--r-- 1 felipe users         0 Oct 22 12:24 fort.77.pe089
-rw-r--r-- 1 felipe users         0 Oct 22 12:24 fort.77.pe090
-rw-r--r-- 1 felipe users         0 Oct 22 12:24 fort.77.pe091
-rw-r--r-- 1 felipe users         0 Oct 22 12:24 fort.77.pe092
-rw-r--r-- 1 felipe users         0 Oct 22 12:24 fort.77.pe093
-rw-r--r-- 1 felipe users         0 Oct 22 12:24 fort.77.pe094
-rw-r--r-- 1 felipe users         0 Oct 22 12:24 fort.77.pe095
-rw-r--r-- 1 felipe users         0 Oct 22 12:24 fort.77.pe096
-rw-r--r-- 1 felipe users         0 Oct 22 12:24 fort.77.pe097
-rw-r--r-- 1 felipe users         0 Oct 22 12:24 fort.77.pe098
-rw-r--r-- 1 felipe users         0 Oct 22 12:24 fort.77.pe099
-rw-r--r-- 1 felipe users         0 Oct 22 12:24 fort.77.pe100
-rw-r--r-- 1 felipe users         0 Oct 22 12:24 fort.77.pe101
-rw-r--r-- 1 felipe users         0 Oct 22 12:24 fort.77.pe102
-rw-r--r-- 1 felipe users         0 Oct 22 12:24 fort.77.pe103
-rw-r--r-- 1 felipe users         0 Oct 22 12:24 fort.77.pe104
-rw-r--r-- 1 felipe users         0 Oct 22 12:24 fort.77.pe105
-rw-r--r-- 1 felipe users         0 Oct 22 12:24 fort.77.pe106
-rw-r--r-- 1 felipe users         0 Oct 22 12:24 fort.77.pe107
-rw-r--r-- 1 felipe users         0 Oct 22 12:24 fort.77.pe108
-rw-r--r-- 1 felipe users         0 Oct 22 12:24 fort.77.pe109
-rw-r--r-- 1 felipe users         0 Oct 22 12:24 fort.77.pe110
-rw-r--r-- 1 felipe users         0 Oct 22 12:24 fort.77.pe111
-rw-r--r-- 1 felipe users         0 Oct 22 12:24 fort.77.pe112
-rw-r--r-- 1 felipe users         0 Oct 22 12:24 fort.77.pe113
-rw-r--r-- 1 felipe users         0 Oct 22 12:24 fort.77.pe114
-rw-r--r-- 1 felipe users         0 Oct 22 12:24 fort.77.pe115
-rw-r--r-- 1 felipe users         0 Oct 22 12:24 fort.77.pe116
-rw-r--r-- 1 felipe users         0 Oct 22 12:24 fort.77.pe117
-rw-r--r-- 1 felipe users         0 Oct 22 12:24 fort.77.pe118
-rw-r--r-- 1 felipe users         0 Oct 22 12:24 fort.77.pe119
-rw-r--r-- 1 felipe users         0 Oct 22 12:24 fort.77.pe120
-rw-r--r-- 1 felipe users         0 Oct 22 12:24 fort.77.pe121
-rw-r--r-- 1 felipe users         0 Oct 22 12:24 fort.77.pe122
-rw-r--r-- 1 felipe users         0 Oct 22 12:24 fort.77.pe123
-rw-r--r-- 1 felipe users         0 Oct 22 12:24 fort.77.pe124
-rw-r--r-- 1 felipe users         0 Oct 22 12:24 fort.77.pe125
-rw-r--r-- 1 felipe users         0 Oct 22 12:24 fort.77.pe126
-rw-r--r-- 1 felipe users         0 Oct 22 12:24 fort.77.pe127
-rw-r--r-- 1 felipe users         0 Oct 22 12:24 fort.8.pe000
-rw-r--r-- 1 felipe users         0 Oct 22 12:24 fort.8.pe001
-rw-r--r-- 1 felipe users         0 Oct 22 12:24 fort.8.pe002
-rw-r--r-- 1 felipe users         0 Oct 22 12:24 fort.8.pe003
-rw-r--r-- 1 felipe users         0 Oct 22 12:24 fort.8.pe004
-rw-r--r-- 1 felipe users         0 Oct 22 12:24 fort.8.pe005
-rw-r--r-- 1 felipe users         0 Oct 22 12:24 fort.8.pe006
-rw-r--r-- 1 felipe users         0 Oct 22 12:24 fort.8.pe007
-rw-r--r-- 1 felipe users         0 Oct 22 12:24 fort.8.pe008
-rw-r--r-- 1 felipe users         0 Oct 22 12:24 fort.8.pe009
-rw-r--r-- 1 felipe users         0 Oct 22 12:24 fort.8.pe010
-rw-r--r-- 1 felipe users         0 Oct 22 12:24 fort.8.pe011
-rw-r--r-- 1 felipe users         0 Oct 22 12:24 fort.8.pe012
-rw-r--r-- 1 felipe users         0 Oct 22 12:24 fort.8.pe013
-rw-r--r-- 1 felipe users         0 Oct 22 12:24 fort.8.pe014
-rw-r--r-- 1 felipe users         0 Oct 22 12:24 fort.8.pe015
-rw-r--r-- 1 felipe users         0 Oct 22 12:24 fort.8.pe016
-rw-r--r-- 1 felipe users         0 Oct 22 12:24 fort.8.pe017
-rw-r--r-- 1 felipe users         0 Oct 22 12:24 fort.8.pe018
-rw-r--r-- 1 felipe users         0 Oct 22 12:24 fort.8.pe019
-rw-r--r-- 1 felipe users         0 Oct 22 12:24 fort.8.pe020
-rw-r--r-- 1 felipe users         0 Oct 22 12:24 fort.8.pe021
-rw-r--r-- 1 felipe users         0 Oct 22 12:24 fort.8.pe022
-rw-r--r-- 1 felipe users         0 Oct 22 12:24 fort.8.pe023
-rw-r--r-- 1 felipe users         0 Oct 22 12:24 fort.8.pe024
-rw-r--r-- 1 felipe users         0 Oct 22 12:24 fort.8.pe025
-rw-r--r-- 1 felipe users         0 Oct 22 12:24 fort.8.pe026
-rw-r--r-- 1 felipe users         0 Oct 22 12:24 fort.8.pe027
-rw-r--r-- 1 felipe users         0 Oct 22 12:24 fort.8.pe028
-rw-r--r-- 1 felipe users         0 Oct 22 12:24 fort.8.pe029
-rw-r--r-- 1 felipe users         0 Oct 22 12:24 fort.8.pe030
-rw-r--r-- 1 felipe users         0 Oct 22 12:24 fort.8.pe031
-rw-r--r-- 1 felipe users         0 Oct 22 12:24 fort.8.pe032
-rw-r--r-- 1 felipe users         0 Oct 22 12:24 fort.8.pe033
-rw-r--r-- 1 felipe users         0 Oct 22 12:24 fort.8.pe034
-rw-r--r-- 1 felipe users         0 Oct 22 12:24 fort.8.pe035
-rw-r--r-- 1 felipe users         0 Oct 22 12:24 fort.8.pe036
-rw-r--r-- 1 felipe users         0 Oct 22 12:24 fort.8.pe037
-rw-r--r-- 1 felipe users         0 Oct 22 12:24 fort.8.pe038
-rw-r--r-- 1 felipe users         0 Oct 22 12:24 fort.8.pe039
-rw-r--r-- 1 felipe users         0 Oct 22 12:24 fort.8.pe040
-rw-r--r-- 1 felipe users         0 Oct 22 12:24 fort.8.pe041
-rw-r--r-- 1 felipe users         0 Oct 22 12:24 fort.8.pe042
-rw-r--r-- 1 felipe users         0 Oct 22 12:24 fort.8.pe043
-rw-r--r-- 1 felipe users         0 Oct 22 12:24 fort.8.pe044
-rw-r--r-- 1 felipe users         0 Oct 22 12:24 fort.8.pe045
-rw-r--r-- 1 felipe users         0 Oct 22 12:24 fort.8.pe046
-rw-r--r-- 1 felipe users         0 Oct 22 12:24 fort.8.pe047
-rw-r--r-- 1 felipe users         0 Oct 22 12:24 fort.8.pe048
-rw-r--r-- 1 felipe users         0 Oct 22 12:24 fort.8.pe049
-rw-r--r-- 1 felipe users         0 Oct 22 12:24 fort.8.pe050
-rw-r--r-- 1 felipe users         0 Oct 22 12:24 fort.8.pe051
-rw-r--r-- 1 felipe users         0 Oct 22 12:24 fort.8.pe052
-rw-r--r-- 1 felipe users         0 Oct 22 12:24 fort.8.pe053
-rw-r--r-- 1 felipe users         0 Oct 22 12:24 fort.8.pe054
-rw-r--r-- 1 felipe users         0 Oct 22 12:24 fort.8.pe055
-rw-r--r-- 1 felipe users         0 Oct 22 12:24 fort.8.pe056
-rw-r--r-- 1 felipe users         0 Oct 22 12:24 fort.8.pe057
-rw-r--r-- 1 felipe users         0 Oct 22 12:24 fort.8.pe058
-rw-r--r-- 1 felipe users         0 Oct 22 12:24 fort.8.pe059
-rw-r--r-- 1 felipe users         0 Oct 22 12:24 fort.8.pe060
-rw-r--r-- 1 felipe users         0 Oct 22 12:24 fort.8.pe061
-rw-r--r-- 1 felipe users         0 Oct 22 12:24 fort.8.pe062
-rw-r--r-- 1 felipe users         0 Oct 22 12:24 fort.8.pe063
-rw-r--r-- 1 felipe users         0 Oct 22 12:24 fort.8.pe064
-rw-r--r-- 1 felipe users         0 Oct 22 12:24 fort.8.pe065
-rw-r--r-- 1 felipe users         0 Oct 22 12:24 fort.8.pe066
-rw-r--r-- 1 felipe users         0 Oct 22 12:24 fort.8.pe067
-rw-r--r-- 1 felipe users         0 Oct 22 12:24 fort.8.pe068
-rw-r--r-- 1 felipe users         0 Oct 22 12:24 fort.8.pe069
-rw-r--r-- 1 felipe users         0 Oct 22 12:24 fort.8.pe070
-rw-r--r-- 1 felipe users         0 Oct 22 12:24 fort.8.pe071
-rw-r--r-- 1 felipe users         0 Oct 22 12:24 fort.8.pe072
-rw-r--r-- 1 felipe users         0 Oct 22 12:24 fort.8.pe073
-rw-r--r-- 1 felipe users         0 Oct 22 12:24 fort.8.pe074
-rw-r--r-- 1 felipe users         0 Oct 22 12:24 fort.8.pe075
-rw-r--r-- 1 felipe users         0 Oct 22 12:24 fort.8.pe076
-rw-r--r-- 1 felipe users         0 Oct 22 12:24 fort.8.pe077
-rw-r--r-- 1 felipe users         0 Oct 22 12:24 fort.8.pe078
-rw-r--r-- 1 felipe users         0 Oct 22 12:24 fort.8.pe079
-rw-r--r-- 1 felipe users         0 Oct 22 12:24 fort.8.pe080
-rw-r--r-- 1 felipe users         0 Oct 22 12:24 fort.8.pe081
-rw-r--r-- 1 felipe users         0 Oct 22 12:24 fort.8.pe082
-rw-r--r-- 1 felipe users         0 Oct 22 12:24 fort.8.pe083
-rw-r--r-- 1 felipe users         0 Oct 22 12:24 fort.8.pe084
-rw-r--r-- 1 felipe users         0 Oct 22 12:24 fort.8.pe085
-rw-r--r-- 1 felipe users         0 Oct 22 12:24 fort.8.pe086
-rw-r--r-- 1 felipe users         0 Oct 22 12:24 fort.8.pe087
-rw-r--r-- 1 felipe users         0 Oct 22 12:24 fort.8.pe088
-rw-r--r-- 1 felipe users         0 Oct 22 12:24 fort.8.pe089
-rw-r--r-- 1 felipe users         0 Oct 22 12:24 fort.8.pe090
-rw-r--r-- 1 felipe users         0 Oct 22 12:24 fort.8.pe091
-rw-r--r-- 1 felipe users         0 Oct 22 12:24 fort.8.pe092
-rw-r--r-- 1 felipe users         0 Oct 22 12:24 fort.8.pe093
-rw-r--r-- 1 felipe users         0 Oct 22 12:24 fort.8.pe094
-rw-r--r-- 1 felipe users         0 Oct 22 12:24 fort.8.pe095
-rw-r--r-- 1 felipe users         0 Oct 22 12:24 fort.8.pe096
-rw-r--r-- 1 felipe users         0 Oct 22 12:24 fort.8.pe097
-rw-r--r-- 1 felipe users         0 Oct 22 12:24 fort.8.pe098
-rw-r--r-- 1 felipe users         0 Oct 22 12:24 fort.8.pe099
-rw-r--r-- 1 felipe users         0 Oct 22 12:24 fort.8.pe100
-rw-r--r-- 1 felipe users         0 Oct 22 12:24 fort.8.pe101
-rw-r--r-- 1 felipe users         0 Oct 22 12:24 fort.8.pe102
-rw-r--r-- 1 felipe users         0 Oct 22 12:24 fort.8.pe103
-rw-r--r-- 1 felipe users         0 Oct 22 12:24 fort.8.pe104
-rw-r--r-- 1 felipe users         0 Oct 22 12:24 fort.8.pe105
-rw-r--r-- 1 felipe users         0 Oct 22 12:24 fort.8.pe106
-rw-r--r-- 1 felipe users         0 Oct 22 12:24 fort.8.pe107
-rw-r--r-- 1 felipe users         0 Oct 22 12:24 fort.8.pe108
-rw-r--r-- 1 felipe users         0 Oct 22 12:24 fort.8.pe109
-rw-r--r-- 1 felipe users         0 Oct 22 12:24 fort.8.pe110
-rw-r--r-- 1 felipe users         0 Oct 22 12:24 fort.8.pe111
-rw-r--r-- 1 felipe users         0 Oct 22 12:24 fort.8.pe112
-rw-r--r-- 1 felipe users         0 Oct 22 12:24 fort.8.pe113
-rw-r--r-- 1 felipe users         0 Oct 22 12:24 fort.8.pe114
-rw-r--r-- 1 felipe users         0 Oct 22 12:24 fort.8.pe115
-rw-r--r-- 1 felipe users         0 Oct 22 12:24 fort.8.pe116
-rw-r--r-- 1 felipe users         0 Oct 22 12:24 fort.8.pe117
-rw-r--r-- 1 felipe users         0 Oct 22 12:24 fort.8.pe118
-rw-r--r-- 1 felipe users         0 Oct 22 12:24 fort.8.pe119
-rw-r--r-- 1 felipe users         0 Oct 22 12:24 fort.8.pe120
-rw-r--r-- 1 felipe users         0 Oct 22 12:24 fort.8.pe121
-rw-r--r-- 1 felipe users         0 Oct 22 12:24 fort.8.pe122
-rw-r--r-- 1 felipe users         0 Oct 22 12:24 fort.8.pe123
-rw-r--r-- 1 felipe users         0 Oct 22 12:24 fort.8.pe124
-rw-r--r-- 1 felipe users         0 Oct 22 12:24 fort.8.pe125
-rw-r--r-- 1 felipe users         0 Oct 22 12:24 fort.8.pe126
-rw-r--r-- 1 felipe users         0 Oct 22 12:24 fort.8.pe127
-rw-r--r-- 1 felipe users 143292988 Oct 22 12:24 fort.9
-rw-r--r-- 1 felipe users 377361909 Oct 22 12:24 fort.98
-rw-r--r-- 1 felipe users        13 Oct 22 12:24 INPUT
-rwxr-xr-x 1 felipe users 104622352 Oct 22 12:24 Pproperties
-rw-r--r-- 1 felipe users  12518968 Oct 22 14:07 SPIN_CUBE.DAT
file fort.98 saved as /home/felipe/Wide-Band-Gap/Ga2O3/HSE06/Ga_VAC_TETRA/Ga2O3_VAC_TETRA_ECH3.f98
file fort.31 saved as /home/felipe/Wide-Band-Gap/Ga2O3/HSE06/Ga_VAC_TETRA/Ga2O3_VAC_TETRA_ECH3_dat.prop3d
file SPIN_CUBE.DAT saved as /home/felipe/Wide-Band-Gap/Ga2O3/HSE06/Ga_VAC_TETRA/Ga2O3_VAC_TETRA_ECH3_dat.SPIN_CUBE
file DENS_CUBE.DAT saved as /home/felipe/Wide-Band-Gap/Ga2O3/HSE06/Ga_VAC_TETRA/Ga2O3_VAC_TETRA_ECH3_dat.DENS_CUBE
removing temporary directories /home/felipe/tmp/tmp_p225870_felipe from each node
