date Sun Dec 21 12:01:16 AM CET 2025
master hostname valdubon
master system Linux valdubon 6.4.0-150600.23.73-default #1 SMP PREEMPT_DYNAMIC Tue Oct 7 08:43:02 UTC 2025 (46f6a23) x86_64 x86_64 x86_64 GNU/Linux
user felipe
output data in /home/felipe/Wide-Band-Gap/Ga2O3/18_HF/PRISTINE/GaO_PRISTINE_18HF_ANBD.outp
mpirun executable in /home/felipe/openmpi-4.1.5/bin
file machines.LINUX in /home/felipe/CRYSTAL23/utils23
list of nodes in /home/felipe/CRYSTAL23/utils23/nodes.par
creating temporary directories /home/felipe/tmp/tmp_p195806_felipe on each node
copying input file on each node
scf guess from /home/felipe/Wide-Band-Gap/Ga2O3/18_HF/PRISTINE/GaO_PRISTINE_18HF.f9
copying Pproperties executable on each node
properties input data in /home/felipe/Wide-Band-Gap/Ga2O3/18_HF/PRISTINE/GaO_PRISTINE_18HF_ANBD.d3
NEWK
0 0
1 0
ANBD
1
0
0.05
1
END
copying input file on each node
wave function formatted data from /home/felipe/Wide-Band-Gap/Ga2O3/18_HF/PRISTINE/GaO_PRISTINE_18HF.f98
          64 PROCESSORS WORKING

         
 *******************************************************************************
 *                                                                             *
 *                               CRYSTAL23                                     *
 *                      public : 1.0.1 - October 2022                          *
 *                       HTTP://WWW.CRYSTAL.UNITO.IT                           *
 *                                                                             *
 *                              MAIN AUTHORS                                   *
 *                                                                             *
 *  R. DOVESI(1,11), V.R. SAUNDERS(2), C. ROETTI(1,11), R. ORLANDO(1,11),      *
 *  C.M. ZICOVICH-WILSON(1,3), F. PASCALE(4), B. CIVALLERI(1,11),              *
 *  K. DOLL(5), N.M. HARRISON(6), I.J. BUSH(7), Ph. D'ARCO(8),                 *
 *  M. LLUNELL(9), M. CAUSA'(10), Y. NOEL(8), L. MASCHIO(1,11), A. ERBA(1,11)  *
 *  M. RE'RAT(14), S. CASASSA(1,11), B.G. SEARLE(2), J.K. DESMARAIS(1)         *
 *                                                                             *
 *        CONTRIBUTIONS TO THE CODE HAVE ALSO BEEN GIVEN BY                    *
 *                                                                             *
 *  M. FERRABONE(1,11), M. DE LA PIERRE(1,11), M. FERRERO(1,11),               *
 *  J. BAIMA(1,11), E. ALBANESE(1,11), M.F. PEINTINGER(12), R. BAST(13),       *
 *  B. KIRTMAN(15), V. LACIVITA(1,11), R. DEMICHELIS(1,16)                     *
 *  G. BRANDEBURG(17), S. SALUSTRO(1,11), G. SANSONE(1,11)                     *
 *  M.T. RUGGIERO(18), L.E. DAGA(1), L. DONA'(1), A. COSSARD(1)                *
 *                                                                             *
 * (1) THEORETICAL CHEMISTRY GROUP - UNIVERSITA' DI TORINO - TORINO (ITALY)    *
 * (2) SCIENTIFIC COMPUTING DEPARTMENT - STFC DARESBURY (UK)                   *
 * (3) UNIVERSIDAD AUTONOMA DEL ESTADO DE MORELOS - CUERNAVACA (MEXICO)        *
 * (4) UNIVERSITE' DE LORRAINE - NANCY (FRANCE)                                *
 * (5) UNIVERSITAET STUTTGART- STUTTGART (GERMANY)                             *
 * (6) IMPERIAL COLLEGE - LONDON (UK)                                          *
 * (7) SCIENTIFIC COMPUTING DEPARTMENT - STFC RAL (UK)                         *
 * (8) UPMC - SORBONNE UNIVERSITES - PARIS (FRANCE)                            *
 * (9) UNIVERSIDAD DE BARCELONA - BARCELONA (SPAIN)                            *
 *(10) UNIVERSITA' DI NAPOLI "FEDERICO II" - NAPOLI (ITALY)                    *
 *(11) NIS - NANOSTRUCTURED INTERFACES AND SURFACES - TORINO (ITALY)           *
 *(12) MPI FUER CHEMISCHE ENERGIEKONVERSION - MUELHEIM AN DER RUHR (GERMANY)   *
 *(13) UNIVERSITY OF TROMSO - TROMSO (NORWAY)                                  *
 *(14) UNIVERSITE' DE PAU ET DES PAYS DE L'ADOUR - PAU (FRANCE)                *
 *(15) UNIVERSITY OF CALIFORNIA SANTA BARBARA - SANTA BARBARA (USA)            *
 *(16) CURTIN UNIVERSITY - PERTH (AUSTRALIA)                                   *
 *(17) UNIVERSITY COLLEGE LONDON - LONDON (UK)                                 *
 *(18) UNIVERSITY OF VERMONT - BURLINGTON (USA)                                *
 *                                                                             *
 *******************************************************************************
 EEEEEEEEEE STARTING  DATE 21 12 2025 TIME 00:01:23.1
 INFORMATION **** SET_MPP **** PCRYSTAL CALCULATION

 *******************************************************************************
 β-Ga₂O₃  2×2×2 super-cell – HSE06 - spin polarised                     
 CRYSTAL - PROPERTIES - TYPE OF CALCULATION :  RESTRICTED CLOSED SHELL
 *******************************************************************************
 KOHN-SHAM HAMILTONIAN

 (EXCHANGE)[CORRELATION] FUNCTIONAL:(HSE06 SR/GGA)[PERDEW-BURKE-ERNZERHOF]

 RANGE-SEPARATED HYBRID FUNCTIONAL 
 OMEGA (SHORT-RANGE)[LONG-RANGE]:(    0.1100)[    0.0000]

 HYBRID EXCHANGE - PERCENTAGE OF FOCK EXCHANGE    18.0000

 DIRECT LATTICE VECTOR COMPONENTS (ANGSTROM)
        24.57121    0.00000    0.00000
         0.00000    6.12337    0.00000
        -2.79547    0.00000   11.33580

 LATTICE PARAMETERS  (ANGSTROM AND DEGREES) - PRIMITIVE CELL
       A          B          C         ALPHA      BETA     GAMMA        VOLUME
   24.57121    6.12337   11.67540     90.0000  103.8531   90.0000    1705.56932
 *******************************************************************************
 N. OF ATOMS PER CELL       160 COULOMB OVERLAP TOL          (T1) 10**   -7
 NUMBER OF SHELLS          1728 COULOMB PENETRATION TOL      (T2) 10**   -7
 NUMBER OF AO              4352 EXCHANGE OVERLAP TOL         (T3) 10**   -7
 N. OF ELECTRONS PER CELL  2752 EXCHANGE PSEUDO OVP (F(G))   (T4) 10**   -7
 CORE ELECTRONS PER CELL   1984 EXCHANGE PSEUDO OVP (P(G))   (T5) 10**  -14
 N. OF SYMMETRY OPERATORS     1 POLE ORDER IN MONO ZONE                   4
 *******************************************************************************
   ATOM N.AT.  SHELL    X(A)      Y(A)      Z(A)      EXAD       N.ELECT.
 *******************************************************************************
    1   31 GA   15    -4.740    -1.531    -1.160   2.831E-01      29.270
    2   31 GA   15    -3.342    -1.531    -6.828   2.831E-01      29.270
    3   31 GA   15    -4.740     1.531    -1.160   2.831E-01      29.270
    4   31 GA   15    -3.342     1.531    -6.828   2.831E-01      29.270
    5   31 GA   15     7.545    -1.531    -1.160   2.831E-01      29.270
    6   31 GA   15     6.148    -1.531     4.508   2.831E-01      29.270
    7   31 GA   15     7.545     1.531    -1.160   2.831E-01      29.270
    8   31 GA   15     6.148     1.531     4.508   2.831E-01      29.270
    9   31 GA   15     1.403    -0.000    -1.160   2.831E-01      29.270
   10   31 GA   15     0.005     0.000     4.508   2.831E-01      29.270
   11   31 GA   15     1.403     3.062    -1.160   2.831E-01      29.270
   12   31 GA   15     0.005     3.062     4.508   2.831E-01      29.270
   13   31 GA   15   -10.883    -0.000    -1.160   2.831E-01      29.270
   14   31 GA   15    -9.485    -0.000    -6.828   2.831E-01      29.270
   15   31 GA   15   -10.883     3.062    -1.160   2.831E-01      29.270
   16   31 GA   15    -9.485     3.062    -6.828   2.831E-01      29.270
   17   31 GA   15     4.740     1.531     1.160   2.831E-01      29.270
   18   31 GA   15     3.342     1.531     6.828   2.831E-01      29.270
   19   31 GA   15     4.740    -1.531     1.160   2.831E-01      29.270
   20   31 GA   15     3.342    -1.531     6.828   2.831E-01      29.270
   21   31 GA   15    -7.545     1.531     1.160   2.831E-01      29.270
   22   31 GA   15    -6.148     1.531    -4.508   2.831E-01      29.270
   23   31 GA   15    -7.545    -1.531     1.160   2.831E-01      29.270
   24   31 GA   15    -6.148    -1.531    -4.508   2.831E-01      29.270
   25   31 GA   15    -1.403     0.000     1.160   2.831E-01      29.270
   26   31 GA   15    -0.005    -0.000    -4.508   2.831E-01      29.270
   27   31 GA   15    -1.403     3.062     1.160   2.831E-01      29.270
   28   31 GA   15    -0.005     3.062    -4.508   2.831E-01      29.270
   29   31 GA   15    10.883     0.000     1.160   2.831E-01      29.270
   30   31 GA   15     9.485     0.000     6.828   2.831E-01      29.270
   31   31 GA   15    10.883     3.062     1.160   2.831E-01      29.270
   32   31 GA   15     9.485     3.062     6.828   2.831E-01      29.270
   33   31 GA   15    -4.636     0.000     1.784   2.831E-01      29.303
   34   31 GA   15    -3.238    -0.000    -3.883   2.831E-01      29.303
   35   31 GA   15    -4.635     3.062     1.784   2.831E-01      29.303
   36   31 GA   15    -3.238     3.062    -3.884   2.831E-01      29.303
   37   31 GA   15     7.650     0.000     1.784   2.831E-01      29.303
   38   31 GA   15     6.252     0.000     7.452   2.831E-01      29.303
   39   31 GA   15     7.650     3.062     1.784   2.831E-01      29.303
   40   31 GA   15     6.252     3.062     7.452   2.831E-01      29.303
   41   31 GA   15     1.507     1.531     1.784   2.831E-01      29.303
   42   31 GA   15     2.905     1.531    -3.884   2.831E-01      29.303
   43   31 GA   15     1.507    -1.531     1.784   2.831E-01      29.303
   44   31 GA   15     2.905    -1.531    -3.884   2.831E-01      29.303
   45   31 GA   15   -10.778     1.531     1.784   2.831E-01      29.303
   46   31 GA   15    -9.380     1.531    -3.884   2.831E-01      29.303
   47   31 GA   15   -10.778    -1.531     1.784   2.831E-01      29.303
   48   31 GA   15    -9.380    -1.531    -3.884   2.831E-01      29.303
   49   31 GA   15     4.636    -0.000    -1.784   2.831E-01      29.303
   50   31 GA   15     3.238    -0.000     3.883   2.831E-01      29.303
   51   31 GA   15     4.635     3.062    -1.784   2.831E-01      29.303
   52   31 GA   15     3.238     3.062     3.884   2.831E-01      29.303
   53   31 GA   15    -7.650    -0.000    -1.784   2.831E-01      29.303
   54   31 GA   15    -6.252    -0.000    -7.452   2.831E-01      29.303
   55   31 GA   15    -7.650     3.062    -1.784   2.831E-01      29.303
   56   31 GA   15    -6.252     3.062    -7.452   2.831E-01      29.303
   57   31 GA   15    -1.507     1.531    -1.784   2.831E-01      29.303
   58   31 GA   15    -2.905     1.531     3.884   2.831E-01      29.303
   59   31 GA   15    -1.507    -1.531    -1.784   2.831E-01      29.303
   60   31 GA   15    -2.905    -1.531     3.884   2.831E-01      29.303
   61   31 GA   15    10.778     1.531    -1.784   2.831E-01      29.303
   62   31 GA   15     9.380     1.531     3.884   2.831E-01      29.303
   63   31 GA   15    10.778    -1.531    -1.784   2.831E-01      29.303
   64   31 GA   15     9.380    -1.531     3.884   2.831E-01      29.303
   65    8 O     8    -5.730    -0.000    -1.453   4.535E-01       9.089
   66    8 O     8    -7.128    -0.000     4.215   4.535E-01       9.089
   67    8 O     8    -5.730     3.062    -1.452   4.535E-01       9.089
   68    8 O     8    -7.128     3.062     4.215   4.535E-01       9.089
   69    8 O     8     6.555     0.000    -1.453   4.535E-01       9.089
   70    8 O     8     5.158     0.000     4.215   4.535E-01       9.089
   71    8 O     8     6.555     3.062    -1.453   4.535E-01       9.089
   72    8 O     8     5.158     3.062     4.215   4.535E-01       9.089
   73    8 O     8     0.413    -1.531    -1.453   4.535E-01       9.089
   74    8 O     8    -0.985    -1.531     4.215   4.535E-01       9.089
   75    8 O     8     0.413     1.531    -1.453   4.535E-01       9.089
   76    8 O     8    -0.985     1.531     4.215   4.535E-01       9.089
   77    8 O     8   -11.873    -1.531    -1.453   4.535E-01       9.089
   78    8 O     8    11.300    -1.531     4.215   4.535E-01       9.089
   79    8 O     8   -11.873     1.531    -1.453   4.535E-01       9.089
   80    8 O     8    11.300     1.531     4.215   4.535E-01       9.089
   81    8 O     8     5.730     0.000     1.453   4.535E-01       9.089
   82    8 O     8     7.128     0.000    -4.215   4.535E-01       9.089
   83    8 O     8     5.730     3.062     1.452   4.535E-01       9.089
   84    8 O     8     7.128     3.062    -4.215   4.535E-01       9.089
   85    8 O     8    -6.555    -0.000     1.453   4.535E-01       9.089
   86    8 O     8    -5.158    -0.000    -4.215   4.535E-01       9.089
   87    8 O     8    -6.555     3.062     1.453   4.535E-01       9.089
   88    8 O     8    -5.158     3.062    -4.215   4.535E-01       9.089
   89    8 O     8    -0.413     1.531     1.453   4.535E-01       9.089
   90    8 O     8     0.985     1.531    -4.215   4.535E-01       9.089
   91    8 O     8    -0.413    -1.531     1.453   4.535E-01       9.089
   92    8 O     8     0.985    -1.531    -4.215   4.535E-01       9.089
   93    8 O     8    11.873     1.531     1.453   4.535E-01       9.089
   94    8 O     8   -11.300     1.531    -4.215   4.535E-01       9.089
   95    8 O     8    11.873    -1.531     1.453   4.535E-01       9.089
   96    8 O     8   -11.300    -1.531    -4.215   4.535E-01       9.089
   97    8 O     8    -4.278     1.531     0.624   4.535E-01       9.110
   98    8 O     8    -2.880     1.531    -5.044   4.535E-01       9.110
   99    8 O     8    -4.278    -1.531     0.624   4.535E-01       9.110
  100    8 O     8    -2.880    -1.531    -5.044   4.535E-01       9.110
  101    8 O     8     8.008     1.531     0.624   4.535E-01       9.110
  102    8 O     8     6.610     1.531     6.292   4.535E-01       9.110
  103    8 O     8     8.008    -1.531     0.624   4.535E-01       9.110
  104    8 O     8     6.610    -1.531     6.292   4.535E-01       9.110
  105    8 O     8     1.865     0.000     0.624   4.535E-01       9.110
  106    8 O     8     3.263    -0.000    -5.044   4.535E-01       9.110
  107    8 O     8     1.865     3.062     0.624   4.535E-01       9.110
  108    8 O     8     3.263     3.062    -5.044   4.535E-01       9.110
  109    8 O     8   -10.420    -0.000     0.624   4.535E-01       9.110
  110    8 O     8    -9.023    -0.000    -5.044   4.535E-01       9.110
  111    8 O     8   -10.420     3.062     0.624   4.535E-01       9.110
  112    8 O     8    -9.023     3.062    -5.044   4.535E-01       9.110
  113    8 O     8     4.278     1.531    -0.624   4.535E-01       9.110
  114    8 O     8     2.880     1.531     5.044   4.535E-01       9.110
  115    8 O     8     4.278    -1.531    -0.624   4.535E-01       9.110
  116    8 O     8     2.880    -1.531     5.044   4.535E-01       9.110
  117    8 O     8    -8.008     1.531    -0.624   4.535E-01       9.110
  118    8 O     8    -6.610     1.531    -6.292   4.535E-01       9.110
  119    8 O     8    -8.008    -1.531    -0.624   4.535E-01       9.110
  120    8 O     8    -6.610    -1.531    -6.292   4.535E-01       9.110
  121    8 O     8    -1.865    -0.000    -0.624   4.535E-01       9.110
  122    8 O     8    -3.263     0.000     5.044   4.535E-01       9.110
  123    8 O     8    -1.865     3.062    -0.624   4.535E-01       9.110
  124    8 O     8    -3.263     3.062     5.044   4.535E-01       9.110
  125    8 O     8    10.420     0.000    -0.624   4.535E-01       9.110
  126    8 O     8     9.023     0.000     5.044   4.535E-01       9.110
  127    8 O     8    10.420     3.062    -0.624   4.535E-01       9.110
  128    8 O     8     9.023     3.062     5.044   4.535E-01       9.110
  129    8 O     8    -3.401     1.531    -2.478   4.535E-01       9.228
  130    8 O     8    -4.799     1.531     3.189   4.535E-01       9.228
  131    8 O     8    -3.401    -1.531    -2.478   4.535E-01       9.228
  132    8 O     8    -4.799    -1.531     3.189   4.535E-01       9.228
  133    8 O     8     8.885     1.531    -2.479   4.535E-01       9.228
  134    8 O     8     7.487     1.531     3.189   4.535E-01       9.228
  135    8 O     8     8.885    -1.531    -2.479   4.535E-01       9.228
  136    8 O     8     7.487    -1.531     3.189   4.535E-01       9.228
  137    8 O     8     2.742    -0.000    -2.479   4.535E-01       9.228
  138    8 O     8     1.344     0.000     3.189   4.535E-01       9.228
  139    8 O     8     2.742     3.062    -2.479   4.535E-01       9.228
  140    8 O     8     1.344     3.062     3.189   4.535E-01       9.228
  141    8 O     8    -9.544    -0.000    -2.479   4.535E-01       9.228
  142    8 O     8   -10.942    -0.000     3.189   4.535E-01       9.228
  143    8 O     8    -9.544     3.062    -2.479   4.535E-01       9.228
  144    8 O     8   -10.942     3.062     3.189   4.535E-01       9.228
  145    8 O     8     3.401     1.531     2.478   4.535E-01       9.228
  146    8 O     8     4.799     1.531    -3.189   4.535E-01       9.228
  147    8 O     8     3.401    -1.531     2.478   4.535E-01       9.228
  148    8 O     8     4.799    -1.531    -3.189   4.535E-01       9.228
  149    8 O     8    -8.885     1.531     2.479   4.535E-01       9.228
  150    8 O     8    -7.487     1.531    -3.189   4.535E-01       9.228
  151    8 O     8    -8.885    -1.531     2.479   4.535E-01       9.228
  152    8 O     8    -7.487    -1.531    -3.189   4.535E-01       9.228
  153    8 O     8    -2.742     0.000     2.479   4.535E-01       9.228
  154    8 O     8    -1.344    -0.000    -3.189   4.535E-01       9.228
  155    8 O     8    -2.742     3.062     2.479   4.535E-01       9.228
  156    8 O     8    -1.344     3.062    -3.189   4.535E-01       9.228
  157    8 O     8     9.544     0.000     2.479   4.535E-01       9.228
  158    8 O     8    10.942     0.000    -3.189   4.535E-01       9.228
  159    8 O     8     9.544     3.062     2.479   4.535E-01       9.228
  160    8 O     8    10.942     3.062    -3.189   4.535E-01       9.228
 *******************************************************************************
 DE(K)                   0.000E+00  ENERGY LEVEL SHIFTING        0.00000
 TOTAL ENERGY -1.3040031449707E+05  CONVERGENCE ON ENER       -1.129E-07
 KIN. ENERGY   1.3022416492483E+05  VIR. COEFF.           1.01751665E+00
 N. OF SCF CYCLES               15  FERMI ENERGY              -0.205E+00
 WEIGHT OF F(I) IN F(I+1)      30
 SHRINK. FACT.(MONKH.)     2  2  2  SHRINKING FACTOR(GILAT NET)        2
 NUMBER OF K POINTS IN THE IBZ   8  CELL VOLUME (A.U.)      11509.752473
 *******************************************************************************

 GCALCO - MAX INDICES DIRECT LATTICE VECTOR     7    29    15
 NO.OF VECTORS CREATED 6999 STARS 1818 RMAX   268.33424 BOHR
 TTTTTTTTTTTTTTTTTTTTTTTTTTTTTT gordsh1     TELAPSE        2.53 TCPU        1.60

 MATRIX SIZE: P(G)10888872, F(G) 1872768, P(G) IRR 5458132, F(G) IRR 1879072
 MAX G-VECTOR INDEX FOR 1- AND 2-ELECTRON INTEGRALS  73


 CAPPA:IS1  2;IS2  2;IS3  2; K PTS MONK NET   8; SYMMOPS:K SPACE   2;G SPACE   1


 CAPPA:IS1  2;IS2  2;IS3  2; K PTS MONK NET   8; SYMMOPS:K SPACE   2;G SPACE   1

 *******************************************************************************
 RESTART WITH NEW K POINTS NET
 *******************************************************************************
 POINTS IN THE IBZ                   8 POINTS(GILAT NET)                 8
 SHRINK FACTORS(MONK.)         2  2  2 SHRINK FACTOR(GILAT)              2
 *******************************************************************************
 *** K POINTS COORDINATES (OBLIQUE COORDINATES IN UNITS OF IS =  2)
   1-R(  0  0  0)   2-R(  1  0  0)   3-R(  0  1  0)   4-R(  1  1  0)
   5-R(  0  0  1)   6-R(  1  0  1)   7-R(  0  1  1)   8-R(  1  1  1)

 FERMI ENERGY AND DENSITY MATRIX CALCULATION ON COMPUTED EIGENVECTORS
 DENSITY MATRIX AT SCF CYCLE ( 15+1)

 INSULATING STATE
 TOP OF VALENCE BANDS -    BAND   1376; K    1; EIG -2.0494251E-01 AU
 BOTTOM OF VIRTUAL BANDS - BAND   1377; K    1; EIG -6.1018469E-02 AU
 DIRECT ENERGY BAND GAP:   3.9164 eV

 CORE DENSITY MATRIX CALCULATION
 TTTTTTTTTTTTTTTTTTTTTTTTTTTTTT NEWK        TELAPSE     1166.55 TCPU     1136.57


 *******************************************************************************
  ANALYSIS OF THE MAIN COMPONENTS OF THE CRYSTALLINE ORBITALS
  MODULUS OF MINIMUM COEFFICIENT  0.50000E-01

  BANDS ANALYZED:   388
 *******************************************************************************

    K POINT   1   (  0  0  0)
    BAND  993    E(A.U.)=      -0.738027
 AO 1334 D1 GA   33   RE=    -0.16714
 AO 1337 D4 GA   33   RE=    -0.11185
 AO 1375 D1 GA   34   RE=    -0.16578
 AO 1378 D4 GA   34   RE=    -0.11079
 AO 1416 D1 GA   35   RE=     0.16687
 AO 1419 D4 GA   35   RE=     0.11166
 AO 1457 D1 GA   36   RE=     0.16554
 AO 1460 D4 GA   36   RE=     0.11057
 AO 1498 D1 GA   37   RE=    -0.16711
 AO 1501 D4 GA   37   RE=    -0.11193
 AO 1539 D1 GA   38   RE=    -0.16469
 AO 1542 D4 GA   38   RE=    -0.11012
 AO 1580 D1 GA   39   RE=     0.16722
 AO 1583 D4 GA   39   RE=     0.11192
 AO 1621 D1 GA   40   RE=     0.16473
 AO 1624 D4 GA   40   RE=     0.11014
 AO 1666 D5 GA   41   RE=     0.09068
 AO 1707 D5 GA   42   RE=     0.09096
 AO 1748 D5 GA   43   RE=    -0.09069
 AO 1789 D5 GA   44   RE=    -0.09097
 AO 1830 D5 GA   45   RE=     0.09036
 AO 1871 D5 GA   46   RE=     0.09109
 AO 1912 D5 GA   47   RE=    -0.09036
 AO 1953 D5 GA   48   RE=    -0.09109
 AO 1990 D1 GA   49   RE=     0.16708
 AO 1993 D4 GA   49   RE=     0.11182
 AO 2031 D1 GA   50   RE=     0.16578
 AO 2034 D4 GA   50   RE=     0.11081
 AO 2072 D1 GA   51   RE=    -0.16681
 AO 2075 D4 GA   51   RE=    -0.11163
 AO 2113 D1 GA   52   RE=    -0.16554
 AO 2116 D4 GA   52   RE=    -0.11058
 AO 2154 D1 GA   53   RE=     0.16715
 AO 2157 D4 GA   53   RE=     0.11198
 AO 2195 D1 GA   54   RE=     0.16464
 AO 2198 D4 GA   54   RE=     0.11011
 AO 2236 D1 GA   55   RE=    -0.16726
 AO 2239 D4 GA   55   RE=    -0.11197
 AO 2277 D1 GA   56   RE=    -0.16468
 AO 2280 D4 GA   56   RE=    -0.11012
 AO 2322 D5 GA   57   RE=     0.09067
 AO 2363 D5 GA   58   RE=     0.09095
 AO 2404 D5 GA   59   RE=    -0.09067
 AO 2445 D5 GA   60   RE=    -0.09096
 AO 2486 D5 GA   61   RE=     0.09038
 AO 2527 D5 GA   62   RE=     0.09109
 AO 2568 D5 GA   63   RE=    -0.09039
 AO 2609 D5 GA   64   RE=    -0.09109
    BAND  994    E(A.U.)=      -0.737973
 AO 1338 D5 GA   33   RE=    -0.05207
 AO 1379 D5 GA   34   RE=     0.05270
 AO 1420 D5 GA   35   RE=     0.05258
 AO 1461 D5 GA   36   RE=    -0.05314
 AO 1502 D5 GA   37   RE=     0.05876
 AO 1543 D5 GA   38   RE=    -0.05909
 AO 1584 D5 GA   39   RE=    -0.05864
 AO 1625 D5 GA   40   RE=     0.05908
 AO 1662 D1 GA   41   RE=    -0.14690
 AO 1663 D2 GA   41   RE=     0.05446
 AO 1665 D4 GA   41   RE=    -0.09720
 AO 1703 D1 GA   42   RE=     0.14602
 AO 1704 D2 GA   42   RE=    -0.05451
 AO 1706 D4 GA   42   RE=     0.09671
 AO 1744 D1 GA   43   RE=     0.14690
 AO 1745 D2 GA   43   RE=    -0.05447
 AO 1747 D4 GA   43   RE=     0.09720
 AO 1785 D1 GA   44   RE=    -0.14601
 AO 1786 D2 GA   44   RE=     0.05451
 AO 1788 D4 GA   44   RE=    -0.09672
 AO 1826 D1 GA   45   RE=     0.16951
 AO 1827 D2 GA   45   RE=    -0.06435
 AO 1829 D4 GA   45   RE=     0.11222
 AO 1867 D1 GA   46   RE=    -0.16830
 AO 1868 D2 GA   46   RE=     0.06448
 AO 1870 D4 GA   46   RE=    -0.11151
 AO 1908 D1 GA   47   RE=    -0.16950
 AO 1909 D2 GA   47   RE=     0.06435
 AO 1911 D4 GA   47   RE=    -0.11223
 AO 1949 D1 GA   48   RE=     0.16830
 AO 1950 D2 GA   48   RE=    -0.06448
 AO 1952 D4 GA   48   RE=     0.11151
 AO 2076 D5 GA   51   RE=    -0.05002
 AO 2117 D5 GA   52   RE=     0.05039
 AO 2158 D5 GA   53   RE=    -0.05648
 AO 2199 D5 GA   54   RE=     0.05700
 AO 2240 D5 GA   55   RE=     0.05638
 AO 2281 D5 GA   56   RE=    -0.05700
 AO 2318 D1 GA   57   RE=    -0.15754
 AO 2319 D2 GA   57   RE=     0.05995
 AO 2321 D4 GA   57   RE=    -0.10511
 AO 2359 D1 GA   58   RE=     0.15632
 AO 2360 D2 GA   58   RE=    -0.05992
 AO 2362 D4 GA   58   RE=     0.10440
 AO 2400 D1 GA   59   RE=     0.15754
 AO 2401 D2 GA   59   RE=    -0.05996
 AO 2403 D4 GA   59   RE=     0.10512
 AO 2441 D1 GA   60   RE=    -0.15631
 AO 2442 D2 GA   60   RE=     0.05993
 AO 2444 D4 GA   60   RE=    -0.10441
 AO 2482 D1 GA   61   RE=     0.17820
 AO 2483 D2 GA   61   RE=    -0.06905
 AO 2485 D4 GA   61   RE=     0.11872
 AO 2523 D1 GA   62   RE=    -0.17736
 AO 2524 D2 GA   62   RE=     0.06918
 AO 2526 D4 GA   62   RE=    -0.11825
 AO 2564 D1 GA   63   RE=    -0.17820
 AO 2565 D2 GA   63   RE=     0.06906
 AO 2567 D4 GA   63   RE=    -0.11872
 AO 2605 D1 GA   64   RE=     0.17736
 AO 2606 D2 GA   64   RE=    -0.06918
 AO 2608 D4 GA   64   RE=     0.11825
    BAND  995    E(A.U.)=      -0.737968
 AO 1334 D1 GA   33   RE=     0.15749
 AO 1335 D2 GA   33   RE=    -0.06015
 AO 1337 D4 GA   33   RE=     0.10433
 AO 1375 D1 GA   34   RE=    -0.15810
 AO 1376 D2 GA   34   RE=     0.06000
 AO 1378 D4 GA   34   RE=    -0.10461
 AO 1416 D1 GA   35   RE=    -0.15715
 AO 1417 D2 GA   35   RE=     0.06021
 AO 1419 D4 GA   35   RE=    -0.10430
 AO 1457 D1 GA   36   RE=     0.15775
 AO 1458 D2 GA   36   RE=    -0.06008
 AO 1460 D4 GA   36   RE=     0.10459
 AO 1498 D1 GA   37   RE=    -0.16045
 AO 1499 D2 GA   37   RE=     0.06134
 AO 1501 D4 GA   37   RE=    -0.10661
 AO 1539 D1 GA   38   RE=     0.16229
 AO 1540 D2 GA   38   RE=    -0.06136
 AO 1542 D4 GA   38   RE=     0.10773
 AO 1580 D1 GA   39   RE=     0.16071
 AO 1581 D2 GA   39   RE=    -0.06166
 AO 1583 D4 GA   39   RE=     0.10677
 AO 1621 D1 GA   40   RE=    -0.16253
 AO 1622 D2 GA   40   RE=     0.06166
 AO 1624 D4 GA   40   RE=    -0.10788
 AO 1666 D5 GA   41   RE=     0.05491
 AO 1707 D5 GA   42   RE=    -0.05468
 AO 1748 D5 GA   43   RE=    -0.05491
 AO 1789 D5 GA   44   RE=     0.05469
 AO 1830 D5 GA   45   RE=    -0.05624
 AO 1871 D5 GA   46   RE=     0.05535
 AO 1912 D5 GA   47   RE=     0.05625
 AO 1953 D5 GA   48   RE=    -0.05534
 AO 1990 D1 GA   49   RE=    -0.16453
 AO 1991 D2 GA   49   RE=     0.06378
 AO 1993 D4 GA   49   RE=    -0.10952
 AO 2031 D1 GA   50   RE=     0.16512
 AO 2032 D2 GA   50   RE=    -0.06364
 AO 2034 D4 GA   50   RE=     0.10979
 AO 2072 D1 GA   51   RE=     0.16418
 AO 2073 D2 GA   51   RE=    -0.06386
 AO 2075 D4 GA   51   RE=     0.10951
 AO 2113 D1 GA   52   RE=    -0.16478
 AO 2114 D2 GA   52   RE=     0.06374
 AO 2116 D4 GA   52   RE=    -0.10979
 AO 2154 D1 GA   53   RE=     0.16640
 AO 2155 D2 GA   53   RE=    -0.06450
 AO 2157 D4 GA   53   RE=     0.11109
 AO 2195 D1 GA   54   RE=    -0.16824
 AO 2196 D2 GA   54   RE=     0.06454
 AO 2198 D4 GA   54   RE=    -0.11221
 AO 2236 D1 GA   55   RE=    -0.16664
 AO 2237 D2 GA   55   RE=     0.06479
 AO 2239 D4 GA   55   RE=    -0.11124
 AO 2277 D1 GA   56   RE=     0.16847
 AO 2278 D2 GA   56   RE=    -0.06481
 AO 2280 D4 GA   56   RE=     0.11235
 AO 2322 D5 GA   57   RE=     0.05312
 AO 2363 D5 GA   58   RE=    -0.05289
 AO 2404 D5 GA   59   RE=    -0.05313
 AO 2445 D5 GA   60   RE=     0.05290
 AO 2486 D5 GA   61   RE=    -0.05479
 AO 2527 D5 GA   62   RE=     0.05388
 AO 2568 D5 GA   63   RE=     0.05478
 AO 2609 D5 GA   64   RE=    -0.05389
    BAND  996    E(A.U.)=      -0.737954
 AO  352 D3 GA    9   RE=     0.05209
 AO  393 D3 GA   10   RE=    -0.05205
 AO  434 D3 GA   11   RE=    -0.05191
 AO  475 D3 GA   12   RE=     0.05187
 AO 1662 D1 GA   41   RE=    -0.17490
 AO 1663 D2 GA   41   RE=     0.09095
 AO 1665 D4 GA   41   RE=    -0.12994
 AO 1703 D1 GA   42   RE=     0.17392
 AO 1704 D2 GA   42   RE=    -0.09058
 AO 1706 D4 GA   42   RE=     0.12928
 AO 1744 D1 GA   43   RE=     0.17490
 AO 1745 D2 GA   43   RE=    -0.09095
 AO 1747 D4 GA   43   RE=     0.12995
 AO 1785 D1 GA   44   RE=    -0.17392
 AO 1786 D2 GA   44   RE=     0.09058
 AO 1788 D4 GA   44   RE=    -0.12928
 AO 1826 D1 GA   45   RE=     0.14707
 AO 1827 D2 GA   45   RE=    -0.07852
 AO 1829 D4 GA   45   RE=     0.10941
 AO 1867 D1 GA   46   RE=    -0.14829
 AO 1868 D2 GA   46   RE=     0.07837
 AO 1870 D4 GA   46   RE=    -0.11024
 AO 1908 D1 GA   47   RE=    -0.14707
 AO 1909 D2 GA   47   RE=     0.07852
 AO 1911 D4 GA   47   RE=    -0.10941
 AO 1949 D1 GA   48   RE=     0.14830
 AO 1950 D2 GA   48   RE=    -0.07837
 AO 1952 D4 GA   48   RE=     0.11024
 AO 2318 D1 GA   57   RE=     0.16495
 AO 2319 D2 GA   57   RE=    -0.08710
 AO 2321 D4 GA   57   RE=     0.12331
 AO 2359 D1 GA   58   RE=    -0.16393
 AO 2360 D2 GA   58   RE=     0.08671
 AO 2362 D4 GA   58   RE=    -0.12263
 AO 2400 D1 GA   59   RE=    -0.16495
 AO 2401 D2 GA   59   RE=     0.08710
 AO 2403 D4 GA   59   RE=    -0.12331
 AO 2441 D1 GA   60   RE=     0.16393
 AO 2442 D2 GA   60   RE=    -0.08670
 AO 2444 D4 GA   60   RE=     0.12263
 AO 2482 D1 GA   61   RE=    -0.13689
 AO 2483 D2 GA   61   RE=     0.07454
 AO 2485 D4 GA   61   RE=    -0.10263
 AO 2523 D1 GA   62   RE=     0.13810
 AO 2524 D2 GA   62   RE=    -0.07441
 AO 2526 D4 GA   62   RE=     0.10345
 AO 2564 D1 GA   63   RE=     0.13689
 AO 2565 D2 GA   63   RE=    -0.07455
 AO 2567 D4 GA   63   RE=     0.10263
 AO 2605 D1 GA   64   RE=    -0.13810
 AO 2606 D2 GA   64   RE=     0.07441
 AO 2608 D4 GA   64   RE=    -0.10345
    BAND  997    E(A.U.)=      -0.737947
 AO 1334 D1 GA   33   RE=     0.16182
 AO 1335 D2 GA   33   RE=    -0.08508
 AO 1337 D4 GA   33   RE=     0.12017
 AO 1375 D1 GA   34   RE=    -0.16172
 AO 1376 D2 GA   34   RE=     0.08536
 AO 1378 D4 GA   34   RE=    -0.12011
 AO 1416 D1 GA   35   RE=    -0.16171
 AO 1417 D2 GA   35   RE=     0.08581
 AO 1419 D4 GA   35   RE=    -0.12048
 AO 1457 D1 GA   36   RE=     0.16163
 AO 1458 D2 GA   36   RE=    -0.08607
 AO 1460 D4 GA   36   RE=     0.12041
 AO 1498 D1 GA   37   RE=    -0.15816
 AO 1499 D2 GA   37   RE=     0.08376
 AO 1501 D4 GA   37   RE=    -0.11800
 AO 1539 D1 GA   38   RE=     0.15806
 AO 1540 D2 GA   38   RE=    -0.08413
 AO 1542 D4 GA   38   RE=     0.11792
 AO 1580 D1 GA   39   RE=     0.15791
 AO 1581 D2 GA   39   RE=    -0.08300
 AO 1583 D4 GA   39   RE=     0.11755
 AO 1621 D1 GA   40   RE=    -0.15778
 AO 1622 D2 GA   40   RE=     0.08337
 AO 1624 D4 GA   40   RE=    -0.11746
 AO 1990 D1 GA   49   RE=     0.15472
 AO 1991 D2 GA   49   RE=    -0.08222
 AO 1993 D4 GA   49   RE=     0.11539
 AO 2031 D1 GA   50   RE=    -0.15450
 AO 2032 D2 GA   50   RE=     0.08249
 AO 2034 D4 GA   50   RE=    -0.11526
 AO 2072 D1 GA   51   RE=    -0.15462
 AO 2073 D2 GA   51   RE=     0.08296
 AO 2075 D4 GA   51   RE=    -0.11571
 AO 2113 D1 GA   52   RE=     0.15443
 AO 2114 D2 GA   52   RE=    -0.08321
 AO 2116 D4 GA   52   RE=     0.11558
 AO 2154 D1 GA   53   RE=    -0.15187
 AO 2155 D2 GA   53   RE=     0.08133
 AO 2157 D4 GA   53   RE=    -0.11383
 AO 2195 D1 GA   54   RE=     0.15178
 AO 2196 D2 GA   54   RE=    -0.08170
 AO 2198 D4 GA   54   RE=     0.11377
 AO 2236 D1 GA   55   RE=     0.15160
 AO 2237 D2 GA   55   RE=    -0.08056
 AO 2239 D4 GA   55   RE=     0.11337
 AO 2277 D1 GA   56   RE=    -0.15149
 AO 2278 D2 GA   56   RE=     0.08094
 AO 2280 D4 GA   56   RE=    -0.11330
    BAND  998    E(A.U.)=      -0.737889
 AO 1662 D1 GA   41   RE=     0.14479
 AO 1663 D2 GA   41   RE=    -0.06786
 AO 1665 D4 GA   41   RE=     0.10735
 AO 1703 D1 GA   42   RE=    -0.14317
 AO 1704 D2 GA   42   RE=     0.06762
 AO 1706 D4 GA   42   RE=    -0.10624
 AO 1744 D1 GA   43   RE=    -0.14479
 AO 1745 D2 GA   43   RE=     0.06785
 AO 1747 D4 GA   43   RE=    -0.10735
 AO 1785 D1 GA   44   RE=     0.14316
 AO 1786 D2 GA   44   RE=    -0.06762
 AO 1788 D4 GA   44   RE=     0.10624
 AO 1826 D1 GA   45   RE=     0.17131
 AO 1827 D2 GA   45   RE=    -0.08221
 AO 1829 D4 GA   45   RE=     0.12716
 AO 1867 D1 GA   46   RE=    -0.16958
 AO 1868 D2 GA   46   RE=     0.08206
 AO 1870 D4 GA   46   RE=    -0.12598
 AO 1908 D1 GA   47   RE=    -0.17131
 AO 1909 D2 GA   47   RE=     0.08221
 AO 1911 D4 GA   47   RE=    -0.12715
 AO 1949 D1 GA   48   RE=     0.16958
 AO 1950 D2 GA   48   RE=    -0.08206
 AO 1952 D4 GA   48   RE=     0.12598
 AO 2318 D1 GA   57   RE=    -0.14363
 AO 2319 D2 GA   57   RE=     0.06731
 AO 2321 D4 GA   57   RE=    -0.10657
 AO 2359 D1 GA   58   RE=     0.14195
 AO 2360 D2 GA   58   RE=    -0.06706
 AO 2362 D4 GA   58   RE=     0.10543
 AO 2400 D1 GA   59   RE=     0.14363
 AO 2401 D2 GA   59   RE=    -0.06731
 AO 2403 D4 GA   59   RE=     0.10657
 AO 2441 D1 GA   60   RE=    -0.14195
 AO 2442 D2 GA   60   RE=     0.06705
 AO 2444 D4 GA   60   RE=    -0.10543
 AO 2482 D1 GA   61   RE=    -0.17020
 AO 2483 D2 GA   61   RE=     0.08168
 AO 2485 D4 GA   61   RE=    -0.12641
 AO 2523 D1 GA   62   RE=     0.16851
 AO 2524 D2 GA   62   RE=    -0.08152
 AO 2526 D4 GA   62   RE=     0.12525
 AO 2564 D1 GA   63   RE=     0.17020
 AO 2565 D2 GA   63   RE=    -0.08168
 AO 2567 D4 GA   63   RE=     0.12641
 AO 2605 D1 GA   64   RE=    -0.16851
 AO 2606 D2 GA   64   RE=     0.08152
 AO 2608 D4 GA   64   RE=    -0.12526
    BAND  999    E(A.U.)=      -0.737883
 AO 1334 D1 GA   33   RE=     0.15804
 AO 1335 D2 GA   33   RE=    -0.07559
 AO 1337 D4 GA   33   RE=     0.11701
 AO 1375 D1 GA   34   RE=    -0.15992
 AO 1376 D2 GA   34   RE=     0.07584
 AO 1378 D4 GA   34   RE=    -0.11831
 AO 1416 D1 GA   35   RE=    -0.15777
 AO 1417 D2 GA   35   RE=     0.07642
 AO 1419 D4 GA   35   RE=    -0.11742
 AO 1457 D1 GA   36   RE=     0.15967
 AO 1458 D2 GA   36   RE=    -0.07666
 AO 1460 D4 GA   36   RE=     0.11871
 AO 1498 D1 GA   37   RE=     0.15514
 AO 1499 D2 GA   37   RE=    -0.07503
 AO 1501 D4 GA   37   RE=     0.11563
 AO 1539 D1 GA   38   RE=    -0.15724
 AO 1540 D2 GA   38   RE=     0.07529
 AO 1542 D4 GA   38   RE=    -0.11705
 AO 1580 D1 GA   39   RE=    -0.15513
 AO 1581 D2 GA   39   RE=     0.07419
 AO 1583 D4 GA   39   RE=    -0.11510
 AO 1621 D1 GA   40   RE=     0.15720
 AO 1622 D2 GA   40   RE=    -0.07446
 AO 1624 D4 GA   40   RE=     0.11651
 AO 1990 D1 GA   49   RE=    -0.15772
 AO 1991 D2 GA   49   RE=     0.07544
 AO 1993 D4 GA   49   RE=    -0.11682
 AO 2031 D1 GA   50   RE=     0.15960
 AO 2032 D2 GA   50   RE=    -0.07569
 AO 2034 D4 GA   50   RE=     0.11812
 AO 2072 D1 GA   51   RE=     0.15745
 AO 2073 D2 GA   51   RE=    -0.07630
 AO 2075 D4 GA   51   RE=     0.11725
 AO 2113 D1 GA   52   RE=    -0.15935
 AO 2114 D2 GA   52   RE=     0.07653
 AO 2116 D4 GA   52   RE=    -0.11854
 AO 2154 D1 GA   53   RE=    -0.15382
 AO 2155 D2 GA   53   RE=     0.07434
 AO 2157 D4 GA   53   RE=    -0.11469
 AO 2195 D1 GA   54   RE=     0.15591
 AO 2196 D2 GA   54   RE=    -0.07461
 AO 2198 D4 GA   54   RE=     0.11611
 AO 2236 D1 GA   55   RE=     0.15380
 AO 2237 D2 GA   55   RE=    -0.07352
 AO 2239 D4 GA   55   RE=     0.11417
 AO 2277 D1 GA   56   RE=    -0.15588
 AO 2278 D2 GA   56   RE=     0.07379
 AO 2280 D4 GA   56   RE=    -0.11558
    BAND 1000    E(A.U.)=      -0.737696
 AO 1336 D3 GA   33   RE=    -0.05782
 AO 1338 D5 GA   33   RE=    -0.15896
 AO 1377 D3 GA   34   RE=    -0.05705
 AO 1379 D5 GA   34   RE=    -0.15678
 AO 1418 D3 GA   35   RE=    -0.05768
 AO 1420 D5 GA   35   RE=    -0.15872
 AO 1459 D3 GA   36   RE=    -0.05694
 AO 1461 D5 GA   36   RE=    -0.15660
 AO 1500 D3 GA   37   RE=    -0.05227
 AO 1502 D5 GA   37   RE=    -0.14364
 AO 1541 D3 GA   38   RE=    -0.05183
 AO 1543 D5 GA   38   RE=    -0.14239
 AO 1582 D3 GA   39   RE=    -0.05232
 AO 1584 D5 GA   39   RE=    -0.14374
 AO 1623 D3 GA   40   RE=    -0.05185
 AO 1625 D5 GA   40   RE=    -0.14238
 AO 1664 D3 GA   41   RE=    -0.05654
 AO 1666 D5 GA   41   RE=    -0.15475
 AO 1705 D3 GA   42   RE=    -0.05717
 AO 1707 D5 GA   42   RE=    -0.15657
 AO 1746 D3 GA   43   RE=    -0.05654
 AO 1748 D5 GA   43   RE=    -0.15475
 AO 1787 D3 GA   44   RE=    -0.05717
 AO 1789 D5 GA   44   RE=    -0.15656
 AO 1828 D3 GA   45   RE=    -0.05198
 AO 1830 D5 GA   45   RE=    -0.14236
 AO 1869 D3 GA   46   RE=    -0.05243
 AO 1871 D5 GA   46   RE=    -0.14371
 AO 1910 D3 GA   47   RE=    -0.05198
 AO 1912 D5 GA   47   RE=    -0.14236
 AO 1951 D3 GA   48   RE=    -0.05243
 AO 1953 D5 GA   48   RE=    -0.14371
 AO 1992 D3 GA   49   RE=     0.05746
 AO 1994 D5 GA   49   RE=     0.15791
 AO 2033 D3 GA   50   RE=     0.05680
 AO 2035 D5 GA   50   RE=     0.15601
 AO 2074 D3 GA   51   RE=     0.05732
 AO 2076 D5 GA   51   RE=     0.15766
 AO 2115 D3 GA   52   RE=     0.05669
 AO 2117 D5 GA   52   RE=     0.15583
 AO 2156 D3 GA   53   RE=     0.05235
 AO 2158 D5 GA   53   RE=     0.14382
 AO 2197 D3 GA   54   RE=     0.05194
 AO 2199 D5 GA   54   RE=     0.14262
 AO 2238 D3 GA   55   RE=     0.05240
 AO 2240 D5 GA   55   RE=     0.14389
 AO 2279 D3 GA   56   RE=     0.05195
 AO 2281 D5 GA   56   RE=     0.14260
 AO 2320 D3 GA   57   RE=     0.05677
 AO 2322 D5 GA   57   RE=     0.15529
 AO 2361 D3 GA   58   RE=     0.05750
 AO 2363 D5 GA   58   RE=     0.15736
 AO 2402 D3 GA   59   RE=     0.05677
 AO 2404 D5 GA   59   RE=     0.15529
 AO 2443 D3 GA   60   RE=     0.05750
 AO 2445 D5 GA   60   RE=     0.15735
 AO 2484 D3 GA   61   RE=     0.05184
 AO 2486 D5 GA   61   RE=     0.14194
 AO 2525 D3 GA   62   RE=     0.05232
 AO 2527 D5 GA   62   RE=     0.14335
 AO 2566 D3 GA   63   RE=     0.05184
 AO 2568 D5 GA   63   RE=     0.14194
 AO 2607 D3 GA   64   RE=     0.05232
 AO 2609 D5 GA   64   RE=     0.14335
    BAND 1001    E(A.U.)=      -0.737686
 AO   23 D2 GA    1   RE=     0.11393
 AO   25 D4 GA    1   RE=    -0.05209
 AO   64 D2 GA    2   RE=     0.11436
 AO   66 D4 GA    2   RE=    -0.05220
 AO  105 D2 GA    3   RE=     0.11393
 AO  107 D4 GA    3   RE=    -0.05209
 AO  146 D2 GA    4   RE=     0.11435
 AO  148 D4 GA    4   RE=    -0.05220
 AO  187 D2 GA    5   RE=     0.11408
 AO  189 D4 GA    5   RE=    -0.05207
 AO  228 D2 GA    6   RE=     0.11447
 AO  230 D4 GA    6   RE=    -0.05217
 AO  269 D2 GA    7   RE=     0.11408
 AO  271 D4 GA    7   RE=    -0.05207
 AO  310 D2 GA    8   RE=     0.11447
 AO  312 D4 GA    8   RE=    -0.05216
 AO  351 D2 GA    9   RE=     0.11466
 AO  353 D4 GA    9   RE=    -0.05270
 AO  392 D2 GA   10   RE=     0.11425
 AO  394 D4 GA   10   RE=    -0.05260
 AO  433 D2 GA   11   RE=     0.11398
 AO  435 D4 GA   11   RE=    -0.05152
 AO  474 D2 GA   12   RE=     0.11354
 AO  476 D4 GA   12   RE=    -0.05141
 AO  515 D2 GA   13   RE=     0.11446
 AO  517 D4 GA   13   RE=    -0.05232
 AO  556 D2 GA   14   RE=     0.11404
 AO  558 D4 GA   14   RE=    -0.05222
 AO  597 D2 GA   15   RE=     0.11437
 AO  599 D4 GA   15   RE=    -0.05215
 AO  638 D2 GA   16   RE=     0.11400
 AO  640 D4 GA   16   RE=    -0.05206
 AO  679 D2 GA   17   RE=     0.11395
 AO  681 D4 GA   17   RE=    -0.05210
 AO  720 D2 GA   18   RE=     0.11435
 AO  722 D4 GA   18   RE=    -0.05220
 AO  761 D2 GA   19   RE=     0.11395
 AO  763 D4 GA   19   RE=    -0.05210
 AO  802 D2 GA   20   RE=     0.11436
 AO  804 D4 GA   20   RE=    -0.05221
 AO  843 D2 GA   21   RE=     0.11407
 AO  845 D4 GA   21   RE=    -0.05207
 AO  884 D2 GA   22   RE=     0.11448
 AO  886 D4 GA   22   RE=    -0.05217
 AO  925 D2 GA   23   RE=     0.11407
 AO  927 D4 GA   23   RE=    -0.05207
 AO  966 D2 GA   24   RE=     0.11448
 AO  968 D4 GA   24   RE=    -0.05217
 AO 1007 D2 GA   25   RE=     0.11467
 AO 1009 D4 GA   25   RE=    -0.05271
 AO 1048 D2 GA   26   RE=     0.11425
 AO 1050 D4 GA   26   RE=    -0.05260
 AO 1089 D2 GA   27   RE=     0.11399
 AO 1091 D4 GA   27   RE=    -0.05153
 AO 1130 D2 GA   28   RE=     0.11354
 AO 1132 D4 GA   28   RE=    -0.05142
 AO 1171 D2 GA   29   RE=     0.11446
 AO 1173 D4 GA   29   RE=    -0.05232
 AO 1212 D2 GA   30   RE=     0.11405
 AO 1214 D4 GA   30   RE=    -0.05223
 AO 1253 D2 GA   31   RE=     0.11437
 AO 1255 D4 GA   31   RE=    -0.05215
 AO 1294 D2 GA   32   RE=     0.11401
 AO 1296 D4 GA   32   RE=    -0.05206
 AO 1335 D2 GA   33   RE=    -0.07748
 AO 1376 D2 GA   34   RE=    -0.07709
 AO 1417 D2 GA   35   RE=    -0.07593
 AO 1458 D2 GA   36   RE=    -0.07553
 AO 1499 D2 GA   37   RE=    -0.07672
 AO 1540 D2 GA   38   RE=    -0.07637
 AO 1581 D2 GA   39   RE=    -0.07636
 AO 1622 D2 GA   40   RE=    -0.07600
 AO 1663 D2 GA   41   RE=    -0.07583
 AO 1704 D2 GA   42   RE=    -0.07622
 AO 1745 D2 GA   43   RE=    -0.07583
 AO 1786 D2 GA   44   RE=    -0.07622
 AO 1827 D2 GA   45   RE=    -0.07626
 AO 1868 D2 GA   46   RE=    -0.07665
 AO 1909 D2 GA   47   RE=    -0.07626
 AO 1950 D2 GA   48   RE=    -0.07665
 AO 1991 D2 GA   49   RE=    -0.07744
 AO 2032 D2 GA   50   RE=    -0.07707
 AO 2073 D2 GA   51   RE=    -0.07589
 AO 2114 D2 GA   52   RE=    -0.07551
 AO 2155 D2 GA   53   RE=    -0.07670
 AO 2196 D2 GA   54   RE=    -0.07633
 AO 2237 D2 GA   55   RE=    -0.07632
 AO 2278 D2 GA   56   RE=    -0.07595
 AO 2319 D2 GA   57   RE=    -0.07579
 AO 2360 D2 GA   58   RE=    -0.07618
 AO 2401 D2 GA   59   RE=    -0.07579
 AO 2442 D2 GA   60   RE=    -0.07618
 AO 2483 D2 GA   61   RE=    -0.07623
 AO 2524 D2 GA   62   RE=    -0.07661
 AO 2565 D2 GA   63   RE=    -0.07623
 AO 2606 D2 GA   64   RE=    -0.07661
    BAND 1002    E(A.U.)=      -0.737640
 AO 1336 D3 GA   33   RE=     0.07874
 AO 1338 D5 GA   33   RE=     0.21669
 AO 1377 D3 GA   34   RE=     0.07592
 AO 1379 D5 GA   34   RE=     0.20895
 AO 1418 D3 GA   35   RE=     0.07857
 AO 1420 D5 GA   35   RE=     0.21630
 AO 1459 D3 GA   36   RE=     0.07577
 AO 1461 D5 GA   36   RE=     0.20864
 AO 1500 D3 GA   37   RE=    -0.07778
 AO 1502 D5 GA   37   RE=    -0.21350
 AO 1541 D3 GA   38   RE=    -0.07632
 AO 1543 D5 GA   38   RE=    -0.20947
 AO 1582 D3 GA   39   RE=    -0.07792
 AO 1584 D5 GA   39   RE=    -0.21387
 AO 1623 D3 GA   40   RE=    -0.07641
 AO 1625 D5 GA   40   RE=    -0.20971
 AO 2320 D3 GA   57   RE=    -0.07560
 AO 2322 D5 GA   57   RE=    -0.20647
 AO 2361 D3 GA   58   RE=    -0.07840
 AO 2363 D5 GA   58   RE=    -0.21402
 AO 2402 D3 GA   59   RE=    -0.07560
 AO 2404 D5 GA   59   RE=    -0.20647
 AO 2443 D3 GA   60   RE=    -0.07840
 AO 2445 D5 GA   60   RE=    -0.21401
 AO 2484 D3 GA   61   RE=     0.07637
 AO 2486 D5 GA   61   RE=     0.20908
 AO 2525 D3 GA   62   RE=     0.07788
 AO 2527 D5 GA   62   RE=     0.21333
 AO 2566 D3 GA   63   RE=     0.07637
 AO 2568 D5 GA   63   RE=     0.20908
 AO 2607 D3 GA   64   RE=     0.07788
 AO 2609 D5 GA   64   RE=     0.21332
    BAND 1003    E(A.U.)=      -0.737639
 AO 1664 D3 GA   41   RE=     0.07553
 AO 1666 D5 GA   41   RE=     0.20672
 AO 1705 D3 GA   42   RE=     0.07801
 AO 1707 D5 GA   42   RE=     0.21343
 AO 1746 D3 GA   43   RE=     0.07553
 AO 1748 D5 GA   43   RE=     0.20672
 AO 1787 D3 GA   44   RE=     0.07800
 AO 1789 D5 GA   44   RE=     0.21342
 AO 1828 D3 GA   45   RE=    -0.07655
 AO 1830 D5 GA   45   RE=    -0.21004
 AO 1869 D3 GA   46   RE=    -0.07817
 AO 1871 D5 GA   46   RE=    -0.21459
 AO 1910 D3 GA   47   RE=    -0.07655
 AO 1912 D5 GA   47   RE=    -0.21004
 AO 1951 D3 GA   48   RE=    -0.07817
 AO 1953 D5 GA   48   RE=    -0.21460
 AO 1992 D3 GA   49   RE=    -0.07837
 AO 1994 D5 GA   49   RE=    -0.21521
 AO 2033 D3 GA   50   RE=    -0.07587
 AO 2035 D5 GA   50   RE=    -0.20836
 AO 2074 D3 GA   51   RE=    -0.07820
 AO 2076 D5 GA   51   RE=    -0.21482
 AO 2115 D3 GA   52   RE=    -0.07572
 AO 2117 D5 GA   52   RE=    -0.20806
 AO 2156 D3 GA   53   RE=     0.07810
 AO 2158 D5 GA   53   RE=     0.21387
 AO 2197 D3 GA   54   RE=     0.07651
 AO 2199 D5 GA   54   RE=     0.20955
 AO 2238 D3 GA   55   RE=     0.07823
 AO 2240 D5 GA   55   RE=     0.21424
 AO 2279 D3 GA   56   RE=     0.07660
 AO 2281 D5 GA   56   RE=     0.20979
    BAND 1004    E(A.U.)=      -0.737615
 AO 1336 D3 GA   33   RE=     0.06136
 AO 1338 D5 GA   33   RE=     0.16125
 AO 1377 D3 GA   34   RE=    -0.05965
 AO 1379 D5 GA   34   RE=    -0.15657
 AO 1418 D3 GA   35   RE=     0.06124
 AO 1420 D5 GA   35   RE=     0.16085
 AO 1459 D3 GA   36   RE=    -0.05954
 AO 1461 D5 GA   36   RE=    -0.15621
 AO 1500 D3 GA   37   RE=     0.05519
 AO 1502 D5 GA   37   RE=     0.14312
 AO 1541 D3 GA   38   RE=    -0.05152
 AO 1543 D5 GA   38   RE=    -0.13305
 AO 1582 D3 GA   39   RE=     0.05522
 AO 1584 D5 GA   39   RE=     0.14331
 AO 1623 D3 GA   40   RE=    -0.05153
 AO 1625 D5 GA   40   RE=    -0.13316
 AO 1664 D3 GA   41   RE=     0.05910
 AO 1666 D5 GA   41   RE=     0.15339
 AO 1705 D3 GA   42   RE=    -0.06107
 AO 1707 D5 GA   42   RE=    -0.15882
 AO 1746 D3 GA   43   RE=     0.05910
 AO 1748 D5 GA   43   RE=     0.15338
 AO 1787 D3 GA   44   RE=    -0.06106
 AO 1789 D5 GA   44   RE=    -0.15881
 AO 1828 D3 GA   45   RE=     0.05150
 AO 1830 D5 GA   45   RE=     0.13372
 AO 1869 D3 GA   46   RE=    -0.05503
 AO 1871 D5 GA   46   RE=    -0.14337
 AO 1910 D3 GA   47   RE=     0.05150
 AO 1912 D5 GA   47   RE=     0.13372
 AO 1951 D3 GA   48   RE=    -0.05503
 AO 1953 D5 GA   48   RE=    -0.14337
 AO 1992 D3 GA   49   RE=     0.06107
 AO 1994 D5 GA   49   RE=     0.16038
 AO 2033 D3 GA   50   RE=    -0.05908
 AO 2035 D5 GA   50   RE=    -0.15494
 AO 2074 D3 GA   51   RE=     0.06095
 AO 2076 D5 GA   51   RE=     0.15998
 AO 2115 D3 GA   52   RE=    -0.05897
 AO 2117 D5 GA   52   RE=    -0.15458
 AO 2156 D3 GA   53   RE=     0.05525
 AO 2158 D5 GA   53   RE=     0.14317
 AO 2197 D3 GA   54   RE=    -0.05176
 AO 2199 D5 GA   54   RE=    -0.13357
 AO 2238 D3 GA   55   RE=     0.05528
 AO 2240 D5 GA   55   RE=     0.14334
 AO 2279 D3 GA   56   RE=    -0.05176
 AO 2281 D5 GA   56   RE=    -0.13367
 AO 2320 D3 GA   57   RE=     0.05963
 AO 2322 D5 GA   57   RE=     0.15481
 AO 2361 D3 GA   58   RE=    -0.06131
 AO 2363 D5 GA   58   RE=    -0.15944
 AO 2402 D3 GA   59   RE=     0.05963
 AO 2404 D5 GA   59   RE=     0.15481
 AO 2443 D3 GA   60   RE=    -0.06131
 AO 2445 D5 GA   60   RE=    -0.15943
 AO 2484 D3 GA   61   RE=     0.05126
 AO 2486 D5 GA   61   RE=     0.13299
 AO 2525 D3 GA   62   RE=    -0.05497
 AO 2527 D5 GA   62   RE=    -0.14312
 AO 2566 D3 GA   63   RE=     0.05126
 AO 2568 D5 GA   63   RE=     0.13299
 AO 2607 D3 GA   64   RE=    -0.05497
 AO 2609 D5 GA   64   RE=    -0.14312
    BAND 1005    E(A.U.)=      -0.737590
 AO   23 D2 GA    1   RE=    -0.10287
 AO   64 D2 GA    2   RE=     0.10243
 AO  105 D2 GA    3   RE=    -0.10287
 AO  146 D2 GA    4   RE=     0.10243
 AO  187 D2 GA    5   RE=    -0.10064
 AO  228 D2 GA    6   RE=     0.10017
 AO  269 D2 GA    7   RE=    -0.10064
 AO  310 D2 GA    8   RE=     0.10017
 AO  351 D2 GA    9   RE=     0.10378
 AO  392 D2 GA   10   RE=    -0.10422
 AO  433 D2 GA   11   RE=     0.10352
 AO  474 D2 GA   12   RE=    -0.10398
 AO  515 D2 GA   13   RE=     0.09899
 AO  556 D2 GA   14   RE=    -0.09943
 AO  597 D2 GA   15   RE=     0.09900
 AO  638 D2 GA   16   RE=    -0.09942
 AO  679 D2 GA   17   RE=    -0.10276
 AO  720 D2 GA   18   RE=     0.10232
 AO  761 D2 GA   19   RE=    -0.10276
 AO  802 D2 GA   20   RE=     0.10232
 AO  843 D2 GA   21   RE=    -0.10074
 AO  884 D2 GA   22   RE=     0.10027
 AO  925 D2 GA   23   RE=    -0.10074
 AO  966 D2 GA   24   RE=     0.10027
 AO 1007 D2 GA   25   RE=     0.10382
 AO 1048 D2 GA   26   RE=    -0.10426
 AO 1089 D2 GA   27   RE=     0.10356
 AO 1130 D2 GA   28   RE=    -0.10402
 AO 1171 D2 GA   29   RE=     0.09893
 AO 1212 D2 GA   30   RE=    -0.09938
 AO 1253 D2 GA   31   RE=     0.09895
 AO 1294 D2 GA   32   RE=    -0.09937
 AO 1335 D2 GA   33   RE=    -0.09962
 AO 1337 D4 GA   33   RE=     0.05994
 AO 1376 D2 GA   34   RE=     0.09990
 AO 1378 D4 GA   34   RE=    -0.05996
 AO 1417 D2 GA   35   RE=    -0.09889
 AO 1419 D4 GA   35   RE=     0.05884
 AO 1458 D2 GA   36   RE=     0.09924
 AO 1460 D4 GA   36   RE=    -0.05885
 AO 1499 D2 GA   37   RE=    -0.09744
 AO 1501 D4 GA   37   RE=     0.05721
 AO 1540 D2 GA   38   RE=     0.09782
 AO 1542 D4 GA   38   RE=    -0.05726
 AO 1581 D2 GA   39   RE=    -0.09788
 AO 1583 D4 GA   39   RE=     0.05823
 AO 1622 D2 GA   40   RE=     0.09816
 AO 1624 D4 GA   40   RE=    -0.05824
 AO 1663 D2 GA   41   RE=     0.10051
 AO 1665 D4 GA   41   RE=    -0.05992
 AO 1704 D2 GA   42   RE=    -0.10018
 AO 1706 D4 GA   42   RE=     0.05989
 AO 1745 D2 GA   43   RE=     0.10050
 AO 1747 D4 GA   43   RE=    -0.05990
 AO 1786 D2 GA   44   RE=    -0.10017
 AO 1788 D4 GA   44   RE=     0.05988
 AO 1827 D2 GA   45   RE=     0.09645
 AO 1829 D4 GA   45   RE=    -0.05709
 AO 1868 D2 GA   46   RE=    -0.09612
 AO 1870 D4 GA   46   RE=     0.05706
 AO 1909 D2 GA   47   RE=     0.09644
 AO 1911 D4 GA   47   RE=    -0.05709
 AO 1950 D2 GA   48   RE=    -0.09613
 AO 1952 D4 GA   48   RE=     0.05707
 AO 1991 D2 GA   49   RE=    -0.09949
 AO 1993 D4 GA   49   RE=     0.05987
 AO 2032 D2 GA   50   RE=     0.09978
 AO 2034 D4 GA   50   RE=    -0.05988
 AO 2073 D2 GA   51   RE=    -0.09875
 AO 2075 D4 GA   51   RE=     0.05874
 AO 2114 D2 GA   52   RE=     0.09910
 AO 2116 D4 GA   52   RE=    -0.05876
 AO 2155 D2 GA   53   RE=    -0.09751
 AO 2157 D4 GA   53   RE=     0.05727
 AO 2196 D2 GA   54   RE=     0.09789
 AO 2198 D4 GA   54   RE=    -0.05732
 AO 2237 D2 GA   55   RE=    -0.09793
 AO 2239 D4 GA   55   RE=     0.05826
 AO 2278 D2 GA   56   RE=     0.09821
 AO 2280 D4 GA   56   RE=    -0.05828
 AO 2319 D2 GA   57   RE=     0.10049
 AO 2321 D4 GA   57   RE=    -0.05993
 AO 2360 D2 GA   58   RE=    -0.10016
 AO 2362 D4 GA   58   RE=     0.05991
 AO 2401 D2 GA   59   RE=     0.10049
 AO 2403 D4 GA   59   RE=    -0.05992
 AO 2442 D2 GA   60   RE=    -0.10015
 AO 2444 D4 GA   60   RE=     0.05989
 AO 2483 D2 GA   61   RE=     0.09638
 AO 2485 D4 GA   61   RE=    -0.05705
 AO 2524 D2 GA   62   RE=    -0.09606
 AO 2526 D4 GA   62   RE=     0.05702
 AO 2565 D2 GA   63   RE=     0.09638
 AO 2567 D4 GA   63   RE=    -0.05704
 AO 2606 D2 GA   64   RE=    -0.09605
 AO 2608 D4 GA   64   RE=     0.05701
    BAND 1006    E(A.U.)=      -0.737581
 AO 1336 D3 GA   33   RE=    -0.05080
 AO 1338 D5 GA   33   RE=    -0.13961
 AO 1377 D3 GA   34   RE=    -0.05368
 AO 1379 D5 GA   34   RE=    -0.14717
 AO 1418 D3 GA   35   RE=    -0.05072
 AO 1420 D5 GA   35   RE=    -0.13940
 AO 1459 D3 GA   36   RE=    -0.05360
 AO 1461 D5 GA   36   RE=    -0.14696
 AO 1500 D3 GA   37   RE=    -0.05553
 AO 1502 D5 GA   37   RE=    -0.15244
 AO 1541 D3 GA   38   RE=    -0.05828
 AO 1543 D5 GA   38   RE=    -0.15957
 AO 1582 D3 GA   39   RE=    -0.05559
 AO 1584 D5 GA   39   RE=    -0.15269
 AO 1623 D3 GA   40   RE=    -0.05832
 AO 1625 D5 GA   40   RE=    -0.15974
 AO 1664 D3 GA   41   RE=     0.05402
 AO 1666 D5 GA   41   RE=     0.14758
 AO 1705 D3 GA   42   RE=     0.05046
 AO 1707 D5 GA   42   RE=     0.13824
 AO 1746 D3 GA   43   RE=     0.05402
 AO 1748 D5 GA   43   RE=     0.14758
 AO 1787 D3 GA   44   RE=     0.05046
 AO 1789 D5 GA   44   RE=     0.13823
 AO 1828 D3 GA   45   RE=     0.05799
 AO 1830 D5 GA   45   RE=     0.15857
 AO 1869 D3 GA   46   RE=     0.05575
 AO 1871 D5 GA   46   RE=     0.15282
 AO 1910 D3 GA   47   RE=     0.05799
 AO 1912 D5 GA   47   RE=     0.15856
 AO 1951 D3 GA   48   RE=     0.05575
 AO 1953 D5 GA   48   RE=     0.15282
 AO 1992 D3 GA   49   RE=    -0.05069
 AO 1994 D5 GA   49   RE=    -0.13925
 AO 2033 D3 GA   50   RE=    -0.05425
 AO 2035 D5 GA   50   RE=    -0.14863
 AO 2074 D3 GA   51   RE=    -0.05061
 AO 2076 D5 GA   51   RE=    -0.13903
 AO 2115 D3 GA   52   RE=    -0.05417
 AO 2117 D5 GA   52   RE=    -0.14843
 AO 2156 D3 GA   53   RE=    -0.05566
 AO 2158 D5 GA   53   RE=    -0.15270
 AO 2197 D3 GA   54   RE=    -0.05794
 AO 2199 D5 GA   54   RE=    -0.15859
 AO 2238 D3 GA   55   RE=    -0.05572
 AO 2240 D5 GA   55   RE=    -0.15293
 AO 2279 D3 GA   56   RE=    -0.05797
 AO 2281 D5 GA   56   RE=    -0.15875
 AO 2320 D3 GA   57   RE=     0.05345
 AO 2322 D5 GA   57   RE=     0.14590
 AO 2361 D3 GA   58   RE=     0.05053
 AO 2363 D5 GA   58   RE=     0.13837
 AO 2402 D3 GA   59   RE=     0.05345
 AO 2404 D5 GA   59   RE=     0.14590
 AO 2443 D3 GA   60   RE=     0.05053
 AO 2445 D5 GA   60   RE=     0.13836
 AO 2484 D3 GA   61   RE=     0.05829
 AO 2486 D5 GA   61   RE=     0.15932
 AO 2525 D3 GA   62   RE=     0.05560
 AO 2527 D5 GA   62   RE=     0.15234
 AO 2566 D3 GA   63   RE=     0.05829
 AO 2568 D5 GA   63   RE=     0.15932
 AO 2607 D3 GA   64   RE=     0.05560
 AO 2609 D5 GA   64   RE=     0.15234
    BAND 1007    E(A.U.)=      -0.737575
 AO 1336 D3 GA   33   RE=     0.06965
 AO 1338 D5 GA   33   RE=     0.18841
 AO 1377 D3 GA   34   RE=    -0.07185
 AO 1379 D5 GA   34   RE=    -0.19436
 AO 1418 D3 GA   35   RE=     0.06952
 AO 1420 D5 GA   35   RE=     0.18799
 AO 1459 D3 GA   36   RE=    -0.07172
 AO 1461 D5 GA   36   RE=    -0.19398
 AO 1500 D3 GA   37   RE=    -0.06541
 AO 1502 D5 GA   37   RE=    -0.17483
 AO 1541 D3 GA   38   RE=     0.06696
 AO 1543 D5 GA   38   RE=     0.17906
 AO 1582 D3 GA   39   RE=    -0.06546
 AO 1584 D5 GA   39   RE=    -0.17506
 AO 1623 D3 GA   40   RE=     0.06699
 AO 1625 D5 GA   40   RE=     0.17922
 AO 1666 D5 GA   41   RE=    -0.11536
 AO 1707 D5 GA   42   RE=     0.11294
 AO 1748 D5 GA   43   RE=    -0.11535
 AO 1789 D5 GA   44   RE=     0.11294
 AO 1830 D5 GA   45   RE=     0.09101
 AO 1871 D5 GA   46   RE=    -0.08778
 AO 1912 D5 GA   47   RE=     0.09101
 AO 1953 D5 GA   48   RE=    -0.08778
 AO 1994 D5 GA   49   RE=    -0.11381
 AO 2035 D5 GA   50   RE=     0.11603
 AO 2076 D5 GA   51   RE=    -0.11357
 AO 2117 D5 GA   52   RE=     0.11583
 AO 2158 D5 GA   53   RE=     0.08748
 AO 2199 D5 GA   54   RE=    -0.09062
 AO 2240 D5 GA   55   RE=     0.08756
 AO 2281 D5 GA   56   RE=    -0.09067
 AO 2320 D3 GA   57   RE=     0.06901
 AO 2322 D5 GA   57   RE=     0.19254
 AO 2361 D3 GA   58   RE=    -0.06682
 AO 2363 D5 GA   58   RE=    -0.18647
 AO 2402 D3 GA   59   RE=     0.06901
 AO 2404 D5 GA   59   RE=     0.19253
 AO 2443 D3 GA   60   RE=    -0.06681
 AO 2445 D5 GA   60   RE=    -0.18646
 AO 2484 D3 GA   61   RE=    -0.06438
 AO 2486 D5 GA   61   RE=    -0.17913
 AO 2525 D3 GA   62   RE=     0.06287
 AO 2527 D5 GA   62   RE=     0.17497
 AO 2566 D3 GA   63   RE=    -0.06438
 AO 2568 D5 GA   63   RE=    -0.17913
 AO 2607 D3 GA   64   RE=     0.06287
 AO 2609 D5 GA   64   RE=     0.17497
    BAND 1008    E(A.U.)=      -0.737575
 AO 1338 D5 GA   33   RE=    -0.08996
 AO 1379 D5 GA   34   RE=     0.09226
 AO 1420 D5 GA   35   RE=    -0.08972
 AO 1461 D5 GA   36   RE=     0.09204
 AO 1502 D5 GA   37   RE=     0.11160
 AO 1543 D5 GA   38   RE=    -0.11519
 AO 1584 D5 GA   39   RE=     0.11178
 AO 1625 D5 GA   40   RE=    -0.11532
 AO 1664 D3 GA   41   RE=    -0.06648
 AO 1666 D5 GA   41   RE=    -0.17851
 AO 1705 D3 GA   42   RE=     0.06488
 AO 1707 D5 GA   42   RE=     0.17420
 AO 1746 D3 GA   43   RE=    -0.06648
 AO 1748 D5 GA   43   RE=    -0.17851
 AO 1787 D3 GA   44   RE=     0.06487
 AO 1789 D5 GA   44   RE=     0.17419
 AO 1828 D3 GA   45   RE=     0.07204
 AO 1830 D5 GA   45   RE=     0.19306
 AO 1869 D3 GA   46   RE=    -0.07005
 AO 1871 D5 GA   46   RE=    -0.18771
 AO 1910 D3 GA   47   RE=     0.07204
 AO 1912 D5 GA   47   RE=     0.19306
 AO 1951 D3 GA   48   RE=    -0.07006
 AO 1953 D5 GA   48   RE=    -0.18772
 AO 1992 D3 GA   49   RE=    -0.06260
 AO 1994 D5 GA   49   RE=    -0.17599
 AO 2033 D3 GA   50   RE=     0.06418
 AO 2035 D5 GA   50   RE=     0.18038
 AO 2074 D3 GA   51   RE=    -0.06244
 AO 2076 D5 GA   51   RE=    -0.17556
 AO 2115 D3 GA   52   RE=     0.06404
 AO 2117 D5 GA   52   RE=     0.17999
 AO 2156 D3 GA   53   RE=     0.06742
 AO 2158 D5 GA   53   RE=     0.18746
 AO 2197 D3 GA   54   RE=    -0.06943
 AO 2199 D5 GA   54   RE=    -0.19307
 AO 2238 D3 GA   55   RE=     0.06751
 AO 2240 D5 GA   55   RE=     0.18771
 AO 2279 D3 GA   56   RE=    -0.06949
 AO 2281 D5 GA   56   RE=    -0.19324
 AO 2322 D5 GA   57   RE=    -0.09090
 AO 2363 D5 GA   58   RE=     0.08875
 AO 2404 D5 GA   59   RE=    -0.09090
 AO 2445 D5 GA   60   RE=     0.08875
 AO 2486 D5 GA   61   RE=     0.11482
 AO 2527 D5 GA   62   RE=    -0.11149
 AO 2568 D5 GA   63   RE=     0.11481
 AO 2609 D5 GA   64   RE=    -0.11149
    BAND 1009    E(A.U.)=      -0.737537
 AO 1338 D5 GA   33   RE=    -0.13876
 AO 1379 D5 GA   34   RE=     0.14056
 AO 1420 D5 GA   35   RE=    -0.13848
 AO 1461 D5 GA   36   RE=     0.14029
 AO 1500 D3 GA   37   RE=    -0.05520
 AO 1502 D5 GA   37   RE=    -0.15838
 AO 1541 D3 GA   38   RE=     0.05583
 AO 1543 D5 GA   38   RE=     0.16013
 AO 1582 D3 GA   39   RE=    -0.05529
 AO 1584 D5 GA   39   RE=    -0.15860
 AO 1623 D3 GA   40   RE=     0.05589
 AO 1625 D5 GA   40   RE=     0.16029
 AO 1666 D5 GA   41   RE=     0.14000
 AO 1707 D5 GA   42   RE=    -0.13850
 AO 1748 D5 GA   43   RE=     0.14000
 AO 1789 D5 GA   44   RE=    -0.13849
 AO 1828 D3 GA   45   RE=     0.05546
 AO 1830 D5 GA   45   RE=     0.15974
 AO 1869 D3 GA   46   RE=    -0.05490
 AO 1871 D5 GA   46   RE=    -0.15825
 AO 1910 D3 GA   47   RE=     0.05546
 AO 1912 D5 GA   47   RE=     0.15974
 AO 1951 D3 GA   48   RE=    -0.05490
 AO 1953 D5 GA   48   RE=    -0.15825
 AO 1994 D5 GA   49   RE=     0.13978
 AO 2035 D5 GA   50   RE=    -0.14126
 AO 2076 D5 GA   51   RE=     0.13949
 AO 2117 D5 GA   52   RE=    -0.14098
 AO 2156 D3 GA   53   RE=     0.05508
 AO 2158 D5 GA   53   RE=     0.15794
 AO 2197 D3 GA   54   RE=    -0.05566
 AO 2199 D5 GA   54   RE=    -0.15957
 AO 2238 D3 GA   55   RE=     0.05516
 AO 2240 D5 GA   55   RE=     0.15813
 AO 2279 D3 GA   56   RE=    -0.05572
 AO 2281 D5 GA   56   RE=    -0.15971
 AO 2322 D5 GA   57   RE=    -0.13911
 AO 2363 D5 GA   58   RE=     0.13729
 AO 2404 D5 GA   59   RE=    -0.13912
 AO 2445 D5 GA   60   RE=     0.13728
 AO 2484 D3 GA   61   RE=    -0.05561
 AO 2486 D5 GA   61   RE=    -0.16007
 AO 2525 D3 GA   62   RE=     0.05501
 AO 2527 D5 GA   62   RE=     0.15846
 AO 2566 D3 GA   63   RE=    -0.05561
 AO 2568 D5 GA   63   RE=    -0.16007
 AO 2607 D3 GA   64   RE=     0.05501
 AO 2609 D5 GA   64   RE=     0.15846
    BAND 1010    E(A.U.)=      -0.737397
 AO   23 D2 GA    1   RE=    -0.05632
 AO   64 D2 GA    2   RE=     0.05635
 AO  105 D2 GA    3   RE=    -0.05632
 AO  146 D2 GA    4   RE=     0.05635
 AO  187 D2 GA    5   RE=     0.06003
 AO  228 D2 GA    6   RE=    -0.06004
 AO  269 D2 GA    7   RE=     0.06002
 AO  310 D2 GA    8   RE=    -0.06004
 AO  351 D2 GA    9   RE=     0.12870
 AO  392 D2 GA   10   RE=    -0.12874
 AO  433 D2 GA   11   RE=     0.12874
 AO  474 D2 GA   12   RE=    -0.12879
 AO  515 D2 GA   13   RE=    -0.13239
 AO  556 D2 GA   14   RE=     0.13240
 AO  597 D2 GA   15   RE=    -0.13226
 AO  638 D2 GA   16   RE=     0.13226
 AO  679 D2 GA   17   RE=    -0.05369
 AO  720 D2 GA   18   RE=     0.05372
 AO  761 D2 GA   19   RE=    -0.05369
 AO  802 D2 GA   20   RE=     0.05372
 AO  843 D2 GA   21   RE=     0.05740
 AO  884 D2 GA   22   RE=    -0.05741
 AO  925 D2 GA   23   RE=     0.05740
 AO  966 D2 GA   24   RE=    -0.05741
 AO 1007 D2 GA   25   RE=     0.12983
 AO 1048 D2 GA   26   RE=    -0.12987
 AO 1089 D2 GA   27   RE=     0.12987
 AO 1130 D2 GA   28   RE=    -0.12992
 AO 1171 D2 GA   29   RE=    -0.13352
 AO 1212 D2 GA   30   RE=     0.13353
 AO 1253 D2 GA   31   RE=    -0.13340
 AO 1294 D2 GA   32   RE=     0.13340
 AO 1663 D2 GA   41   RE=     0.11651
 AO 1665 D4 GA   41   RE=    -0.07892
 AO 1704 D2 GA   42   RE=    -0.11648
 AO 1706 D4 GA   42   RE=     0.07892
 AO 1745 D2 GA   43   RE=     0.11650
 AO 1747 D4 GA   43   RE=    -0.07891
 AO 1786 D2 GA   44   RE=    -0.11647
 AO 1788 D4 GA   44   RE=     0.07890
 AO 1827 D2 GA   45   RE=    -0.12033
 AO 1829 D4 GA   45   RE=     0.08107
 AO 1868 D2 GA   46   RE=     0.12030
 AO 1870 D4 GA   46   RE=    -0.08106
 AO 1909 D2 GA   47   RE=    -0.12032
 AO 1911 D4 GA   47   RE=     0.08106
 AO 1950 D2 GA   48   RE=     0.12030
 AO 1952 D4 GA   48   RE=    -0.08106
 AO 2319 D2 GA   57   RE=     0.11714
 AO 2321 D4 GA   57   RE=    -0.07974
 AO 2360 D2 GA   58   RE=    -0.11711
 AO 2362 D4 GA   58   RE=     0.07973
 AO 2401 D2 GA   59   RE=     0.11714
 AO 2403 D4 GA   59   RE=    -0.07973
 AO 2442 D2 GA   60   RE=    -0.11710
 AO 2444 D4 GA   60   RE=     0.07972
 AO 2483 D2 GA   61   RE=    -0.12097
 AO 2485 D4 GA   61   RE=     0.08189
 AO 2524 D2 GA   62   RE=     0.12095
 AO 2526 D4 GA   62   RE=    -0.08188
 AO 2565 D2 GA   63   RE=    -0.12097
 AO 2567 D4 GA   63   RE=     0.08188
 AO 2606 D2 GA   64   RE=     0.12094
 AO 2608 D4 GA   64   RE=    -0.08187
    BAND 1011    E(A.U.)=      -0.737393
 AO   23 D2 GA    1   RE=     0.13053
 AO   64 D2 GA    2   RE=    -0.13050
 AO  105 D2 GA    3   RE=     0.13053
 AO  146 D2 GA    4   RE=    -0.13050
 AO  187 D2 GA    5   RE=    -0.13055
 AO  228 D2 GA    6   RE=     0.13052
 AO  269 D2 GA    7   RE=    -0.13055
 AO  310 D2 GA    8   RE=     0.13052
 AO  351 D2 GA    9   RE=     0.05815
 AO  392 D2 GA   10   RE=    -0.05811
 AO  433 D2 GA   11   RE=     0.05805
 AO  474 D2 GA   12   RE=    -0.05802
 AO  515 D2 GA   13   RE=    -0.05822
 AO  556 D2 GA   14   RE=     0.05820
 AO  597 D2 GA   15   RE=    -0.05808
 AO  638 D2 GA   16   RE=     0.05804
 AO  679 D2 GA   17   RE=    -0.13170
 AO  720 D2 GA   18   RE=     0.13169
 AO  761 D2 GA   19   RE=    -0.13171
 AO  802 D2 GA   20   RE=     0.13169
 AO  843 D2 GA   21   RE=     0.13165
 AO  884 D2 GA   22   RE=    -0.13161
 AO  925 D2 GA   23   RE=     0.13165
 AO  966 D2 GA   24   RE=    -0.13161
 AO 1007 D2 GA   25   RE=    -0.05547
 AO 1048 D2 GA   26   RE=     0.05544
 AO 1089 D2 GA   27   RE=    -0.05537
 AO 1130 D2 GA   28   RE=     0.05535
 AO 1171 D2 GA   29   RE=     0.05564
 AO 1212 D2 GA   30   RE=    -0.05560
 AO 1253 D2 GA   31   RE=     0.05550
 AO 1294 D2 GA   32   RE=    -0.05545
 AO 1335 D2 GA   33   RE=     0.11904
 AO 1337 D4 GA   33   RE=    -0.08067
 AO 1376 D2 GA   34   RE=    -0.11904
 AO 1378 D4 GA   34   RE=     0.08065
 AO 1417 D2 GA   35   RE=     0.11820
 AO 1419 D4 GA   35   RE=    -0.07951
 AO 1458 D2 GA   36   RE=    -0.11825
 AO 1460 D4 GA   36   RE=     0.07953
 AO 1499 D2 GA   37   RE=    -0.11833
 AO 1501 D4 GA   37   RE=     0.07956
 AO 1540 D2 GA   38   RE=     0.11841
 AO 1542 D4 GA   38   RE=    -0.07961
 AO 1581 D2 GA   39   RE=    -0.11865
 AO 1583 D4 GA   39   RE=     0.08042
 AO 1622 D2 GA   40   RE=     0.11864
 AO 1624 D4 GA   40   RE=    -0.08040
 AO 1991 D2 GA   49   RE=    -0.11975
 AO 1993 D4 GA   49   RE=     0.08153
 AO 2032 D2 GA   50   RE=     0.11974
 AO 2034 D4 GA   50   RE=    -0.08151
 AO 2073 D2 GA   51   RE=    -0.11891
 AO 2075 D4 GA   51   RE=     0.08035
 AO 2114 D2 GA   52   RE=     0.11896
 AO 2116 D4 GA   52   RE=    -0.08038
 AO 2155 D2 GA   53   RE=     0.11894
 AO 2157 D4 GA   53   RE=    -0.08036
 AO 2196 D2 GA   54   RE=    -0.11903
 AO 2198 D4 GA   54   RE=     0.08042
 AO 2237 D2 GA   55   RE=     0.11924
 AO 2239 D4 GA   55   RE=    -0.08121
 AO 2278 D2 GA   56   RE=    -0.11924
 AO 2280 D4 GA   56   RE=     0.08118
    BAND 1012    E(A.U.)=      -0.737290
 AO   22 D1 GA    1   RE=     0.09848
 AO   25 D4 GA    1   RE=     0.07437
 AO   63 D1 GA    2   RE=     0.09840
 AO   66 D4 GA    2   RE=     0.07445
 AO  104 D1 GA    3   RE=    -0.09848
 AO  107 D4 GA    3   RE=    -0.07437
 AO  145 D1 GA    4   RE=    -0.09840
 AO  148 D4 GA    4   RE=    -0.07445
 AO  186 D1 GA    5   RE=     0.09744
 AO  189 D4 GA    5   RE=     0.07417
 AO  227 D1 GA    6   RE=     0.09744
 AO  230 D4 GA    6   RE=     0.07416
 AO  268 D1 GA    7   RE=    -0.09744
 AO  271 D4 GA    7   RE=    -0.07417
 AO  309 D1 GA    8   RE=    -0.09743
 AO  312 D4 GA    8   RE=    -0.07416
 AO  354 D5 GA    9   RE=    -0.06191
 AO  395 D5 GA   10   RE=    -0.06194
 AO  436 D5 GA   11   RE=     0.06183
 AO  477 D5 GA   12   RE=     0.06186
 AO  518 D5 GA   13   RE=    -0.06186
 AO  559 D5 GA   14   RE=    -0.06186
 AO  600 D5 GA   15   RE=     0.06191
 AO  641 D5 GA   16   RE=     0.06191
 AO  678 D1 GA   17   RE=    -0.09822
 AO  681 D4 GA   17   RE=    -0.07424
 AO  719 D1 GA   18   RE=    -0.09815
 AO  722 D4 GA   18   RE=    -0.07430
 AO  760 D1 GA   19   RE=     0.09822
 AO  763 D4 GA   19   RE=     0.07423
 AO  801 D1 GA   20   RE=     0.09815
 AO  804 D4 GA   20   RE=     0.07430
 AO  842 D1 GA   21   RE=    -0.09752
 AO  845 D4 GA   21   RE=    -0.07427
 AO  883 D1 GA   22   RE=    -0.09752
 AO  886 D4 GA   22   RE=    -0.07426
 AO  924 D1 GA   23   RE=     0.09752
 AO  927 D4 GA   23   RE=     0.07427
 AO  965 D1 GA   24   RE=     0.09751
 AO  968 D4 GA   24   RE=     0.07425
 AO 1010 D5 GA   25   RE=     0.06181
 AO 1051 D5 GA   26   RE=     0.06183
 AO 1092 D5 GA   27   RE=    -0.06173
 AO 1133 D5 GA   28   RE=    -0.06175
 AO 1174 D5 GA   29   RE=     0.06193
 AO 1215 D5 GA   30   RE=     0.06193
 AO 1256 D5 GA   31   RE=    -0.06198
 AO 1297 D5 GA   32   RE=    -0.06198
 AO 1662 D1 GA   41   RE=    -0.10398
 AO 1663 D2 GA   41   RE=    -0.09140
 AO 1665 D4 GA   41   RE=    -0.09503
 AO 1703 D1 GA   42   RE=    -0.10384
 AO 1704 D2 GA   42   RE=    -0.09151
 AO 1706 D4 GA   42   RE=    -0.09496
 AO 1744 D1 GA   43   RE=     0.10398
 AO 1745 D2 GA   43   RE=     0.09139
 AO 1747 D4 GA   43   RE=     0.09503
 AO 1785 D1 GA   44   RE=     0.10383
 AO 1786 D2 GA   44   RE=     0.09150
 AO 1788 D4 GA   44   RE=     0.09496
 AO 1826 D1 GA   45   RE=    -0.10585
 AO 1827 D2 GA   45   RE=    -0.09181
 AO 1829 D4 GA   45   RE=    -0.09589
 AO 1867 D1 GA   46   RE=    -0.10576
 AO 1868 D2 GA   46   RE=    -0.09185
 AO 1870 D4 GA   46   RE=    -0.09584
 AO 1908 D1 GA   47   RE=     0.10585
 AO 1909 D2 GA   47   RE=     0.09181
 AO 1911 D4 GA   47   RE=     0.09589
 AO 1949 D1 GA   48   RE=     0.10576
 AO 1950 D2 GA   48   RE=     0.09184
 AO 1952 D4 GA   48   RE=     0.09584
 AO 2318 D1 GA   57   RE=    -0.10415
 AO 2319 D2 GA   57   RE=    -0.09149
 AO 2321 D4 GA   57   RE=    -0.09522
 AO 2359 D1 GA   58   RE=    -0.10398
 AO 2360 D2 GA   58   RE=    -0.09162
 AO 2362 D4 GA   58   RE=    -0.09514
 AO 2400 D1 GA   59   RE=     0.10415
 AO 2401 D2 GA   59   RE=     0.09149
 AO 2403 D4 GA   59   RE=     0.09522
 AO 2441 D1 GA   60   RE=     0.10397
 AO 2442 D2 GA   60   RE=     0.09162
 AO 2444 D4 GA   60   RE=     0.09514
 AO 2482 D1 GA   61   RE=    -0.10539
 AO 2483 D2 GA   61   RE=    -0.09170
 AO 2485 D4 GA   61   RE=    -0.09555
 AO 2523 D1 GA   62   RE=    -0.10528
 AO 2524 D2 GA   62   RE=    -0.09174
 AO 2526 D4 GA   62   RE=    -0.09549
 AO 2564 D1 GA   63   RE=     0.10538
 AO 2565 D2 GA   63   RE=     0.09170
 AO 2567 D4 GA   63   RE=     0.09555
 AO 2605 D1 GA   64   RE=     0.10528
 AO 2606 D2 GA   64   RE=     0.09174
 AO 2608 D4 GA   64   RE=     0.09549
    BAND 1013    E(A.U.)=      -0.737286
 AO   26 D5 GA    1   RE=     0.06142
 AO   67 D5 GA    2   RE=     0.06140
 AO  108 D5 GA    3   RE=    -0.06142
 AO  149 D5 GA    4   RE=    -0.06140
 AO  190 D5 GA    5   RE=     0.06239
 AO  231 D5 GA    6   RE=     0.06237
 AO  272 D5 GA    7   RE=    -0.06239
 AO  313 D5 GA    8   RE=    -0.06237
 AO  350 D1 GA    9   RE=     0.09861
 AO  353 D4 GA    9   RE=     0.07447
 AO  391 D1 GA   10   RE=     0.09866
 AO  394 D4 GA   10   RE=     0.07443
 AO  432 D1 GA   11   RE=    -0.09847
 AO  435 D4 GA   11   RE=    -0.07490
 AO  473 D1 GA   12   RE=    -0.09852
 AO  476 D4 GA   12   RE=    -0.07486
 AO  514 D1 GA   13   RE=     0.09693
 AO  517 D4 GA   13   RE=     0.07330
 AO  555 D1 GA   14   RE=     0.09698
 AO  558 D4 GA   14   RE=     0.07327
 AO  596 D1 GA   15   RE=    -0.09676
 AO  599 D4 GA   15   RE=    -0.07380
 AO  637 D1 GA   16   RE=    -0.09682
 AO  640 D4 GA   16   RE=    -0.07376
 AO  682 D5 GA   17   RE=     0.06141
 AO  723 D5 GA   18   RE=     0.06139
 AO  764 D5 GA   19   RE=    -0.06141
 AO  805 D5 GA   20   RE=    -0.06139
 AO  846 D5 GA   21   RE=     0.06238
 AO  887 D5 GA   22   RE=     0.06236
 AO  928 D5 GA   23   RE=    -0.06238
 AO  969 D5 GA   24   RE=    -0.06236
 AO 1006 D1 GA   25   RE=     0.09857
 AO 1009 D4 GA   25   RE=     0.07446
 AO 1047 D1 GA   26   RE=     0.09862
 AO 1050 D4 GA   26   RE=     0.07442
 AO 1088 D1 GA   27   RE=    -0.09842
 AO 1091 D4 GA   27   RE=    -0.07489
 AO 1129 D1 GA   28   RE=    -0.09848
 AO 1132 D4 GA   28   RE=    -0.07485
 AO 1170 D1 GA   29   RE=     0.09686
 AO 1173 D4 GA   29   RE=     0.07328
 AO 1211 D1 GA   30   RE=     0.09691
 AO 1214 D4 GA   30   RE=     0.07325
 AO 1252 D1 GA   31   RE=    -0.09669
 AO 1255 D4 GA   31   RE=    -0.07378
 AO 1293 D1 GA   32   RE=    -0.09674
 AO 1296 D4 GA   32   RE=    -0.07374
 AO 1334 D1 GA   33   RE=     0.10693
 AO 1335 D2 GA   33   RE=     0.09181
 AO 1337 D4 GA   33   RE=     0.09716
 AO 1375 D1 GA   34   RE=     0.10704
 AO 1376 D2 GA   34   RE=     0.09172
 AO 1378 D4 GA   34   RE=     0.09721
 AO 1416 D1 GA   35   RE=    -0.10705
 AO 1417 D2 GA   35   RE=    -0.09247
 AO 1419 D4 GA   35   RE=    -0.09706
 AO 1457 D1 GA   36   RE=    -0.10716
 AO 1458 D2 GA   36   RE=    -0.09237
 AO 1460 D4 GA   36   RE=    -0.09710
 AO 1498 D1 GA   37   RE=     0.10287
 AO 1499 D2 GA   37   RE=     0.09073
 AO 1501 D4 GA   37   RE=     0.09391
 AO 1539 D1 GA   38   RE=     0.10305
 AO 1540 D2 GA   38   RE=     0.09063
 AO 1542 D4 GA   38   RE=     0.09399
 AO 1580 D1 GA   39   RE=    -0.10332
 AO 1581 D2 GA   39   RE=    -0.09153
 AO 1583 D4 GA   39   RE=    -0.09383
 AO 1621 D1 GA   40   RE=    -0.10348
 AO 1622 D2 GA   40   RE=    -0.09140
 AO 1624 D4 GA   40   RE=    -0.09393
 AO 1990 D1 GA   49   RE=     0.10683
 AO 1991 D2 GA   49   RE=     0.09181
 AO 1993 D4 GA   49   RE=     0.09710
 AO 2031 D1 GA   50   RE=     0.10695
 AO 2032 D2 GA   50   RE=     0.09172
 AO 2034 D4 GA   50   RE=     0.09715
 AO 2072 D1 GA   51   RE=    -0.10695
 AO 2073 D2 GA   51   RE=    -0.09247
 AO 2075 D4 GA   51   RE=    -0.09700
 AO 2113 D1 GA   52   RE=    -0.10706
 AO 2114 D2 GA   52   RE=    -0.09237
 AO 2116 D4 GA   52   RE=    -0.09704
 AO 2154 D1 GA   53   RE=     0.10273
 AO 2155 D2 GA   53   RE=     0.09073
 AO 2157 D4 GA   53   RE=     0.09384
 AO 2195 D1 GA   54   RE=     0.10290
 AO 2196 D2 GA   54   RE=     0.09062
 AO 2198 D4 GA   54   RE=     0.09392
 AO 2236 D1 GA   55   RE=    -0.10318
 AO 2237 D2 GA   55   RE=    -0.09152
 AO 2239 D4 GA   55   RE=    -0.09377
 AO 2277 D1 GA   56   RE=    -0.10333
 AO 2278 D2 GA   56   RE=    -0.09139
 AO 2280 D4 GA   56   RE=    -0.09386
    BAND 1014    E(A.U.)=      -0.737230
 AO   22 D1 GA    1   RE=     0.07886
 AO   25 D4 GA    1   RE=     0.05726
 AO   63 D1 GA    2   RE=     0.07878
 AO   66 D4 GA    2   RE=     0.05735
 AO  104 D1 GA    3   RE=    -0.07886
 AO  107 D4 GA    3   RE=    -0.05726
 AO  145 D1 GA    4   RE=    -0.07878
 AO  148 D4 GA    4   RE=    -0.05735
 AO  186 D1 GA    5   RE=    -0.07774
 AO  189 D4 GA    5   RE=    -0.05707
 AO  227 D1 GA    6   RE=    -0.07772
 AO  230 D4 GA    6   RE=    -0.05707
 AO  268 D1 GA    7   RE=     0.07773
 AO  271 D4 GA    7   RE=     0.05708
 AO  309 D1 GA    8   RE=     0.07772
 AO  312 D4 GA    8   RE=     0.05707
 AO  678 D1 GA   17   RE=     0.07901
 AO  681 D4 GA   17   RE=     0.05742
 AO  719 D1 GA   18   RE=     0.07894
 AO  722 D4 GA   18   RE=     0.05749
 AO  760 D1 GA   19   RE=    -0.07901
 AO  763 D4 GA   19   RE=    -0.05742
 AO  801 D1 GA   20   RE=    -0.07894
 AO  804 D4 GA   20   RE=    -0.05749
 AO  842 D1 GA   21   RE=    -0.07747
 AO  845 D4 GA   21   RE=    -0.05691
 AO  883 D1 GA   22   RE=    -0.07746
 AO  886 D4 GA   22   RE=    -0.05690
 AO  924 D1 GA   23   RE=     0.07747
 AO  927 D4 GA   23   RE=     0.05691
 AO  965 D1 GA   24   RE=     0.07746
 AO  968 D4 GA   24   RE=     0.05690
 AO 1662 D1 GA   41   RE=     0.14324
 AO 1663 D2 GA   41   RE=     0.05105
 AO 1665 D4 GA   41   RE=     0.12039
 AO 1703 D1 GA   42   RE=     0.14298
 AO 1704 D2 GA   42   RE=     0.05124
 AO 1706 D4 GA   42   RE=     0.12022
 AO 1744 D1 GA   43   RE=    -0.14324
 AO 1745 D2 GA   43   RE=    -0.05105
 AO 1747 D4 GA   43   RE=    -0.12039
 AO 1785 D1 GA   44   RE=    -0.14298
 AO 1786 D2 GA   44   RE=    -0.05124
 AO 1788 D4 GA   44   RE=    -0.12022
 AO 1826 D1 GA   45   RE=    -0.14465
 AO 1827 D2 GA   45   RE=    -0.05072
 AO 1829 D4 GA   45   RE=    -0.12098
 AO 1867 D1 GA   46   RE=    -0.14450
 AO 1868 D2 GA   46   RE=    -0.05081
 AO 1870 D4 GA   46   RE=    -0.12088
 AO 1908 D1 GA   47   RE=     0.14465
 AO 1909 D2 GA   47   RE=     0.05072
 AO 1911 D4 GA   47   RE=     0.12098
 AO 1949 D1 GA   48   RE=     0.14450
 AO 1950 D2 GA   48   RE=     0.05081
 AO 1952 D4 GA   48   RE=     0.12088
 AO 2318 D1 GA   57   RE=    -0.14283
 AO 2319 D2 GA   57   RE=    -0.05084
 AO 2321 D4 GA   57   RE=    -0.12009
 AO 2359 D1 GA   58   RE=    -0.14255
 AO 2360 D2 GA   58   RE=    -0.05105
 AO 2362 D4 GA   58   RE=    -0.11991
 AO 2400 D1 GA   59   RE=     0.14283
 AO 2401 D2 GA   59   RE=     0.05084
 AO 2403 D4 GA   59   RE=     0.12009
 AO 2441 D1 GA   60   RE=     0.14254
 AO 2442 D2 GA   60   RE=     0.05105
 AO 2444 D4 GA   60   RE=     0.11991
 AO 2482 D1 GA   61   RE=     0.14469
 AO 2483 D2 GA   61   RE=     0.05091
 AO 2485 D4 GA   61   RE=     0.12110
 AO 2523 D1 GA   62   RE=     0.14454
 AO 2524 D2 GA   62   RE=     0.05100
 AO 2526 D4 GA   62   RE=     0.12100
 AO 2564 D1 GA   63   RE=    -0.14469
 AO 2565 D2 GA   63   RE=    -0.05091
 AO 2567 D4 GA   63   RE=    -0.12110
 AO 2605 D1 GA   64   RE=    -0.14454
 AO 2606 D2 GA   64   RE=    -0.05100
 AO 2608 D4 GA   64   RE=    -0.12099
    BAND 1015    E(A.U.)=      -0.737225
 AO  350 D1 GA    9   RE=    -0.07680
 AO  353 D4 GA    9   RE=    -0.05577
 AO  391 D1 GA   10   RE=    -0.07685
 AO  394 D4 GA   10   RE=    -0.05572
 AO  432 D1 GA   11   RE=     0.07658
 AO  435 D4 GA   11   RE=     0.05616
 AO  473 D1 GA   12   RE=     0.07663
 AO  476 D4 GA   12   RE=     0.05611
 AO  514 D1 GA   13   RE=     0.07931
 AO  517 D4 GA   13   RE=     0.05822
 AO  555 D1 GA   14   RE=     0.07937
 AO  558 D4 GA   14   RE=     0.05817
 AO  596 D1 GA   15   RE=    -0.07943
 AO  599 D4 GA   15   RE=    -0.05790
 AO  637 D1 GA   16   RE=    -0.07949
 AO  640 D4 GA   16   RE=    -0.05784
 AO 1006 D1 GA   25   RE=    -0.07679
 AO 1009 D4 GA   25   RE=    -0.05577
 AO 1047 D1 GA   26   RE=    -0.07684
 AO 1050 D4 GA   26   RE=    -0.05573
 AO 1088 D1 GA   27   RE=     0.07657
 AO 1091 D4 GA   27   RE=     0.05616
 AO 1129 D1 GA   28   RE=     0.07662
 AO 1132 D4 GA   28   RE=     0.05611
 AO 1170 D1 GA   29   RE=     0.07925
 AO 1173 D4 GA   29   RE=     0.05821
 AO 1211 D1 GA   30   RE=     0.07931
 AO 1214 D4 GA   30   RE=     0.05816
 AO 1252 D1 GA   31   RE=    -0.07937
 AO 1255 D4 GA   31   RE=    -0.05788
 AO 1293 D1 GA   32   RE=    -0.07943
 AO 1296 D4 GA   32   RE=    -0.05783
 AO 1334 D1 GA   33   RE=    -0.14277
 AO 1337 D4 GA   33   RE=    -0.11964
 AO 1375 D1 GA   34   RE=    -0.14295
 AO 1378 D4 GA   34   RE=    -0.11977
 AO 1416 D1 GA   35   RE=     0.14270
 AO 1419 D4 GA   35   RE=     0.11941
 AO 1457 D1 GA   36   RE=     0.14292
 AO 1460 D4 GA   36   RE=     0.11954
 AO 1498 D1 GA   37   RE=     0.14507
 AO 1499 D2 GA   37   RE=     0.05247
 AO 1501 D4 GA   37   RE=     0.12172
 AO 1539 D1 GA   38   RE=     0.14538
 AO 1540 D2 GA   38   RE=     0.05225
 AO 1542 D4 GA   38   RE=     0.12191
 AO 1580 D1 GA   39   RE=    -0.14495
 AO 1581 D2 GA   39   RE=    -0.05185
 AO 1583 D4 GA   39   RE=    -0.12178
 AO 1621 D1 GA   40   RE=    -0.14521
 AO 1622 D2 GA   40   RE=    -0.05165
 AO 1624 D4 GA   40   RE=    -0.12196
 AO 1990 D1 GA   49   RE=    -0.14265
 AO 1993 D4 GA   49   RE=    -0.11958
 AO 2031 D1 GA   50   RE=    -0.14283
 AO 2034 D4 GA   50   RE=    -0.11970
 AO 2072 D1 GA   51   RE=     0.14258
 AO 2075 D4 GA   51   RE=     0.11935
 AO 2113 D1 GA   52   RE=     0.14280
 AO 2116 D4 GA   52   RE=     0.11948
 AO 2154 D1 GA   53   RE=     0.14490
 AO 2155 D2 GA   53   RE=     0.05247
 AO 2157 D4 GA   53   RE=     0.12163
 AO 2195 D1 GA   54   RE=     0.14521
 AO 2196 D2 GA   54   RE=     0.05226
 AO 2198 D4 GA   54   RE=     0.12182
 AO 2236 D1 GA   55   RE=    -0.14477
 AO 2237 D2 GA   55   RE=    -0.05185
 AO 2239 D4 GA   55   RE=    -0.12169
 AO 2277 D1 GA   56   RE=    -0.14504
 AO 2278 D2 GA   56   RE=    -0.05165
 AO 2280 D4 GA   56   RE=    -0.12187
    BAND 1016    E(A.U.)=      -0.736151
 AO   22 D1 GA    1   RE=     0.06069
 AO   23 D2 GA    1   RE=     0.14031
 AO   25 D4 GA    1   RE=    -0.07009
 AO   63 D1 GA    2   RE=    -0.05965
 AO   64 D2 GA    2   RE=    -0.14087
 AO   66 D4 GA    2   RE=     0.07052
 AO  104 D1 GA    3   RE=    -0.06069
 AO  105 D2 GA    3   RE=    -0.14031
 AO  107 D4 GA    3   RE=     0.07009
 AO  145 D1 GA    4   RE=     0.05965
 AO  146 D2 GA    4   RE=     0.14087
 AO  148 D4 GA    4   RE=    -0.07052
 AO  186 D1 GA    5   RE=    -0.05711
 AO  187 D2 GA    5   RE=    -0.13161
 AO  189 D4 GA    5   RE=     0.06831
 AO  227 D1 GA    6   RE=     0.05749
 AO  228 D2 GA    6   RE=     0.13140
 AO  230 D4 GA    6   RE=    -0.06815
 AO  268 D1 GA    7   RE=     0.05711
 AO  269 D2 GA    7   RE=     0.13161
 AO  271 D4 GA    7   RE=    -0.06831
 AO  309 D1 GA    8   RE=    -0.05749
 AO  310 D2 GA    8   RE=    -0.13140
 AO  312 D4 GA    8   RE=     0.06815
 AO  354 D5 GA    9   RE=     0.05706
 AO  395 D5 GA   10   RE=    -0.05745
 AO  436 D5 GA   11   RE=    -0.05701
 AO  477 D5 GA   12   RE=     0.05740
 AO  518 D5 GA   13   RE=    -0.05392
 AO  559 D5 GA   14   RE=     0.05378
 AO  600 D5 GA   15   RE=     0.05395
 AO  641 D5 GA   16   RE=    -0.05381
 AO  678 D1 GA   17   RE=    -0.05986
 AO  679 D2 GA   17   RE=    -0.14045
 AO  681 D4 GA   17   RE=     0.07032
 AO  719 D1 GA   18   RE=     0.06031
 AO  720 D2 GA   18   RE=     0.14022
 AO  722 D4 GA   18   RE=    -0.07012
 AO  760 D1 GA   19   RE=     0.05986
 AO  761 D2 GA   19   RE=     0.14046
 AO  763 D4 GA   19   RE=    -0.07032
 AO  801 D1 GA   20   RE=    -0.06030
 AO  802 D2 GA   20   RE=    -0.14021
 AO  804 D4 GA   20   RE=     0.07012
 AO  842 D1 GA   21   RE=     0.05785
 AO  843 D2 GA   21   RE=     0.13114
 AO  845 D4 GA   21   RE=    -0.06800
 AO  883 D1 GA   22   RE=    -0.05673
 AO  884 D2 GA   22   RE=    -0.13174
 AO  886 D4 GA   22   RE=     0.06848
 AO  924 D1 GA   23   RE=    -0.05785
 AO  925 D2 GA   23   RE=    -0.13114
 AO  927 D4 GA   23   RE=     0.06800
 AO  965 D1 GA   24   RE=     0.05673
 AO  966 D2 GA   24   RE=     0.13174
 AO  968 D4 GA   24   RE=    -0.06848
 AO 1010 D5 GA   25   RE=    -0.05727
 AO 1051 D5 GA   26   RE=     0.05708
 AO 1092 D5 GA   27   RE=     0.05721
 AO 1133 D5 GA   28   RE=    -0.05703
 AO 1174 D5 GA   29   RE=     0.05360
 AO 1215 D5 GA   30   RE=    -0.05405
 AO 1256 D5 GA   31   RE=    -0.05364
 AO 1297 D5 GA   32   RE=     0.05408
 AO 1662 D1 GA   41   RE=     0.07053
 AO 1663 D2 GA   41   RE=     0.09817
 AO 1665 D4 GA   41   RE=     0.06288
 AO 1703 D1 GA   42   RE=    -0.07018
 AO 1704 D2 GA   42   RE=    -0.09800
 AO 1706 D4 GA   42   RE=    -0.06253
 AO 1744 D1 GA   43   RE=    -0.07053
 AO 1745 D2 GA   43   RE=    -0.09817
 AO 1747 D4 GA   43   RE=    -0.06288
 AO 1785 D1 GA   44   RE=     0.07018
 AO 1786 D2 GA   44   RE=     0.09800
 AO 1788 D4 GA   44   RE=     0.06253
 AO 1826 D1 GA   45   RE=    -0.06660
 AO 1827 D2 GA   45   RE=    -0.09263
 AO 1829 D4 GA   45   RE=    -0.05883
 AO 1867 D1 GA   46   RE=     0.06696
 AO 1868 D2 GA   46   RE=     0.09305
 AO 1870 D4 GA   46   RE=     0.05944
 AO 1908 D1 GA   47   RE=     0.06660
 AO 1909 D2 GA   47   RE=     0.09263
 AO 1911 D4 GA   47   RE=     0.05883
 AO 1949 D1 GA   48   RE=    -0.06696
 AO 1950 D2 GA   48   RE=    -0.09305
 AO 1952 D4 GA   48   RE=    -0.05944
 AO 2318 D1 GA   57   RE=     0.07029
 AO 2319 D2 GA   57   RE=     0.09808
 AO 2321 D4 GA   57   RE=     0.06253
 AO 2359 D1 GA   58   RE=    -0.07055
 AO 2360 D2 GA   58   RE=    -0.09840
 AO 2362 D4 GA   58   RE=    -0.06306
 AO 2400 D1 GA   59   RE=    -0.07029
 AO 2401 D2 GA   59   RE=    -0.09808
 AO 2403 D4 GA   59   RE=    -0.06253
 AO 2441 D1 GA   60   RE=     0.07055
 AO 2442 D2 GA   60   RE=     0.09839
 AO 2444 D4 GA   60   RE=     0.06306
 AO 2482 D1 GA   61   RE=    -0.06690
 AO 2483 D2 GA   61   RE=    -0.09290
 AO 2485 D4 GA   61   RE=    -0.05928
 AO 2523 D1 GA   62   RE=     0.06662
 AO 2524 D2 GA   62   RE=     0.09282
 AO 2526 D4 GA   62   RE=     0.05900
 AO 2564 D1 GA   63   RE=     0.06690
[...]
-rw-r--r-- 1 felipe users         0 Dec 21 00:01 fort.61.pe03
-rw-r--r-- 1 felipe users         0 Dec 21 00:01 fort.61.pe04
-rw-r--r-- 1 felipe users         0 Dec 21 00:01 fort.61.pe05
-rw-r--r-- 1 felipe users         0 Dec 21 00:01 fort.61.pe06
-rw-r--r-- 1 felipe users         0 Dec 21 00:01 fort.61.pe07
-rw-r--r-- 1 felipe users         0 Dec 21 00:01 fort.61.pe08
-rw-r--r-- 1 felipe users         0 Dec 21 00:01 fort.61.pe09
-rw-r--r-- 1 felipe users         0 Dec 21 00:01 fort.61.pe10
-rw-r--r-- 1 felipe users         0 Dec 21 00:01 fort.61.pe11
-rw-r--r-- 1 felipe users         0 Dec 21 00:01 fort.61.pe12
-rw-r--r-- 1 felipe users         0 Dec 21 00:01 fort.61.pe13
-rw-r--r-- 1 felipe users         0 Dec 21 00:01 fort.61.pe14
-rw-r--r-- 1 felipe users         0 Dec 21 00:01 fort.61.pe15
-rw-r--r-- 1 felipe users         0 Dec 21 00:01 fort.61.pe16
-rw-r--r-- 1 felipe users         0 Dec 21 00:01 fort.61.pe17
-rw-r--r-- 1 felipe users         0 Dec 21 00:01 fort.61.pe18
-rw-r--r-- 1 felipe users         0 Dec 21 00:01 fort.61.pe19
-rw-r--r-- 1 felipe users         0 Dec 21 00:01 fort.61.pe20
-rw-r--r-- 1 felipe users         0 Dec 21 00:01 fort.61.pe21
-rw-r--r-- 1 felipe users         0 Dec 21 00:01 fort.61.pe22
-rw-r--r-- 1 felipe users         0 Dec 21 00:01 fort.61.pe23
-rw-r--r-- 1 felipe users         0 Dec 21 00:01 fort.61.pe24
-rw-r--r-- 1 felipe users         0 Dec 21 00:01 fort.61.pe25
-rw-r--r-- 1 felipe users         0 Dec 21 00:01 fort.61.pe26
-rw-r--r-- 1 felipe users         0 Dec 21 00:01 fort.61.pe27
-rw-r--r-- 1 felipe users         0 Dec 21 00:01 fort.61.pe28
-rw-r--r-- 1 felipe users         0 Dec 21 00:01 fort.61.pe29
-rw-r--r-- 1 felipe users         0 Dec 21 00:01 fort.61.pe30
-rw-r--r-- 1 felipe users         0 Dec 21 00:01 fort.61.pe31
-rw-r--r-- 1 felipe users         0 Dec 21 00:01 fort.61.pe32
-rw-r--r-- 1 felipe users         0 Dec 21 00:01 fort.61.pe33
-rw-r--r-- 1 felipe users         0 Dec 21 00:01 fort.61.pe34
-rw-r--r-- 1 felipe users         0 Dec 21 00:01 fort.61.pe35
-rw-r--r-- 1 felipe users         0 Dec 21 00:01 fort.61.pe36
-rw-r--r-- 1 felipe users         0 Dec 21 00:01 fort.61.pe37
-rw-r--r-- 1 felipe users         0 Dec 21 00:01 fort.61.pe38
-rw-r--r-- 1 felipe users         0 Dec 21 00:01 fort.61.pe39
-rw-r--r-- 1 felipe users         0 Dec 21 00:01 fort.61.pe40
-rw-r--r-- 1 felipe users         0 Dec 21 00:01 fort.61.pe41
-rw-r--r-- 1 felipe users         0 Dec 21 00:01 fort.61.pe42
-rw-r--r-- 1 felipe users         0 Dec 21 00:01 fort.61.pe43
-rw-r--r-- 1 felipe users         0 Dec 21 00:01 fort.61.pe44
-rw-r--r-- 1 felipe users         0 Dec 21 00:01 fort.61.pe45
-rw-r--r-- 1 felipe users         0 Dec 21 00:01 fort.61.pe46
-rw-r--r-- 1 felipe users         0 Dec 21 00:01 fort.61.pe47
-rw-r--r-- 1 felipe users         0 Dec 21 00:01 fort.61.pe48
-rw-r--r-- 1 felipe users         0 Dec 21 00:01 fort.61.pe49
-rw-r--r-- 1 felipe users         0 Dec 21 00:01 fort.61.pe50
-rw-r--r-- 1 felipe users         0 Dec 21 00:01 fort.61.pe51
-rw-r--r-- 1 felipe users         0 Dec 21 00:01 fort.61.pe52
-rw-r--r-- 1 felipe users         0 Dec 21 00:01 fort.61.pe53
-rw-r--r-- 1 felipe users         0 Dec 21 00:01 fort.61.pe54
-rw-r--r-- 1 felipe users         0 Dec 21 00:01 fort.61.pe55
-rw-r--r-- 1 felipe users         0 Dec 21 00:01 fort.61.pe56
-rw-r--r-- 1 felipe users         0 Dec 21 00:01 fort.61.pe57
-rw-r--r-- 1 felipe users         0 Dec 21 00:01 fort.61.pe58
-rw-r--r-- 1 felipe users         0 Dec 21 00:01 fort.61.pe59
-rw-r--r-- 1 felipe users         0 Dec 21 00:01 fort.61.pe60
-rw-r--r-- 1 felipe users         0 Dec 21 00:01 fort.61.pe61
-rw-r--r-- 1 felipe users         0 Dec 21 00:01 fort.61.pe62
-rw-r--r-- 1 felipe users         0 Dec 21 00:01 fort.61.pe63
-rw-r--r-- 1 felipe users         0 Dec 21 00:01 fort.62.pe00
-rw-r--r-- 1 felipe users         0 Dec 21 00:01 fort.62.pe01
-rw-r--r-- 1 felipe users         0 Dec 21 00:01 fort.62.pe02
-rw-r--r-- 1 felipe users         0 Dec 21 00:01 fort.62.pe03
-rw-r--r-- 1 felipe users         0 Dec 21 00:01 fort.62.pe04
-rw-r--r-- 1 felipe users         0 Dec 21 00:01 fort.62.pe05
-rw-r--r-- 1 felipe users         0 Dec 21 00:01 fort.62.pe06
-rw-r--r-- 1 felipe users         0 Dec 21 00:01 fort.62.pe07
-rw-r--r-- 1 felipe users         0 Dec 21 00:01 fort.62.pe08
-rw-r--r-- 1 felipe users         0 Dec 21 00:01 fort.62.pe09
-rw-r--r-- 1 felipe users         0 Dec 21 00:01 fort.62.pe10
-rw-r--r-- 1 felipe users         0 Dec 21 00:01 fort.62.pe11
-rw-r--r-- 1 felipe users         0 Dec 21 00:01 fort.62.pe12
-rw-r--r-- 1 felipe users         0 Dec 21 00:01 fort.62.pe13
-rw-r--r-- 1 felipe users         0 Dec 21 00:01 fort.62.pe14
-rw-r--r-- 1 felipe users         0 Dec 21 00:01 fort.62.pe15
-rw-r--r-- 1 felipe users         0 Dec 21 00:01 fort.62.pe16
-rw-r--r-- 1 felipe users         0 Dec 21 00:01 fort.62.pe17
-rw-r--r-- 1 felipe users         0 Dec 21 00:01 fort.62.pe18
-rw-r--r-- 1 felipe users         0 Dec 21 00:01 fort.62.pe19
-rw-r--r-- 1 felipe users         0 Dec 21 00:01 fort.62.pe20
-rw-r--r-- 1 felipe users         0 Dec 21 00:01 fort.62.pe21
-rw-r--r-- 1 felipe users         0 Dec 21 00:01 fort.62.pe22
-rw-r--r-- 1 felipe users         0 Dec 21 00:01 fort.62.pe23
-rw-r--r-- 1 felipe users         0 Dec 21 00:01 fort.62.pe24
-rw-r--r-- 1 felipe users         0 Dec 21 00:01 fort.62.pe25
-rw-r--r-- 1 felipe users         0 Dec 21 00:01 fort.62.pe26
-rw-r--r-- 1 felipe users         0 Dec 21 00:01 fort.62.pe27
-rw-r--r-- 1 felipe users         0 Dec 21 00:01 fort.62.pe28
-rw-r--r-- 1 felipe users         0 Dec 21 00:01 fort.62.pe29
-rw-r--r-- 1 felipe users         0 Dec 21 00:01 fort.62.pe30
-rw-r--r-- 1 felipe users         0 Dec 21 00:01 fort.62.pe31
-rw-r--r-- 1 felipe users         0 Dec 21 00:01 fort.62.pe32
-rw-r--r-- 1 felipe users         0 Dec 21 00:01 fort.62.pe33
-rw-r--r-- 1 felipe users         0 Dec 21 00:01 fort.62.pe34
-rw-r--r-- 1 felipe users         0 Dec 21 00:01 fort.62.pe35
-rw-r--r-- 1 felipe users         0 Dec 21 00:01 fort.62.pe36
-rw-r--r-- 1 felipe users         0 Dec 21 00:01 fort.62.pe37
-rw-r--r-- 1 felipe users         0 Dec 21 00:01 fort.62.pe38
-rw-r--r-- 1 felipe users         0 Dec 21 00:01 fort.62.pe39
-rw-r--r-- 1 felipe users         0 Dec 21 00:01 fort.62.pe40
-rw-r--r-- 1 felipe users         0 Dec 21 00:01 fort.62.pe41
-rw-r--r-- 1 felipe users         0 Dec 21 00:01 fort.62.pe42
-rw-r--r-- 1 felipe users         0 Dec 21 00:01 fort.62.pe43
-rw-r--r-- 1 felipe users         0 Dec 21 00:01 fort.62.pe44
-rw-r--r-- 1 felipe users         0 Dec 21 00:01 fort.62.pe45
-rw-r--r-- 1 felipe users         0 Dec 21 00:01 fort.62.pe46
-rw-r--r-- 1 felipe users         0 Dec 21 00:01 fort.62.pe47
-rw-r--r-- 1 felipe users         0 Dec 21 00:01 fort.62.pe48
-rw-r--r-- 1 felipe users         0 Dec 21 00:01 fort.62.pe49
-rw-r--r-- 1 felipe users         0 Dec 21 00:01 fort.62.pe50
-rw-r--r-- 1 felipe users         0 Dec 21 00:01 fort.62.pe51
-rw-r--r-- 1 felipe users         0 Dec 21 00:01 fort.62.pe52
-rw-r--r-- 1 felipe users         0 Dec 21 00:01 fort.62.pe53
-rw-r--r-- 1 felipe users         0 Dec 21 00:01 fort.62.pe54
-rw-r--r-- 1 felipe users         0 Dec 21 00:01 fort.62.pe55
-rw-r--r-- 1 felipe users         0 Dec 21 00:01 fort.62.pe56
-rw-r--r-- 1 felipe users         0 Dec 21 00:01 fort.62.pe57
-rw-r--r-- 1 felipe users         0 Dec 21 00:01 fort.62.pe58
-rw-r--r-- 1 felipe users         0 Dec 21 00:01 fort.62.pe59
-rw-r--r-- 1 felipe users         0 Dec 21 00:01 fort.62.pe60
-rw-r--r-- 1 felipe users         0 Dec 21 00:01 fort.62.pe61
-rw-r--r-- 1 felipe users         0 Dec 21 00:01 fort.62.pe62
-rw-r--r-- 1 felipe users         0 Dec 21 00:01 fort.62.pe63
-rw-r--r-- 1 felipe users         0 Dec 21 00:01 fort.75.pe00
-rw-r--r-- 1 felipe users         0 Dec 21 00:01 fort.75.pe01
-rw-r--r-- 1 felipe users         0 Dec 21 00:01 fort.75.pe02
-rw-r--r-- 1 felipe users         0 Dec 21 00:01 fort.75.pe03
-rw-r--r-- 1 felipe users         0 Dec 21 00:01 fort.75.pe04
-rw-r--r-- 1 felipe users         0 Dec 21 00:01 fort.75.pe05
-rw-r--r-- 1 felipe users         0 Dec 21 00:01 fort.75.pe06
-rw-r--r-- 1 felipe users         0 Dec 21 00:01 fort.75.pe07
-rw-r--r-- 1 felipe users         0 Dec 21 00:01 fort.75.pe08
-rw-r--r-- 1 felipe users         0 Dec 21 00:01 fort.75.pe09
-rw-r--r-- 1 felipe users         0 Dec 21 00:01 fort.75.pe10
-rw-r--r-- 1 felipe users         0 Dec 21 00:01 fort.75.pe11
-rw-r--r-- 1 felipe users         0 Dec 21 00:01 fort.75.pe12
-rw-r--r-- 1 felipe users         0 Dec 21 00:01 fort.75.pe13
-rw-r--r-- 1 felipe users         0 Dec 21 00:01 fort.75.pe14
-rw-r--r-- 1 felipe users         0 Dec 21 00:01 fort.75.pe15
-rw-r--r-- 1 felipe users         0 Dec 21 00:01 fort.75.pe16
-rw-r--r-- 1 felipe users         0 Dec 21 00:01 fort.75.pe17
-rw-r--r-- 1 felipe users         0 Dec 21 00:01 fort.75.pe18
-rw-r--r-- 1 felipe users         0 Dec 21 00:01 fort.75.pe19
-rw-r--r-- 1 felipe users         0 Dec 21 00:01 fort.75.pe20
-rw-r--r-- 1 felipe users         0 Dec 21 00:01 fort.75.pe21
-rw-r--r-- 1 felipe users         0 Dec 21 00:01 fort.75.pe22
-rw-r--r-- 1 felipe users         0 Dec 21 00:01 fort.75.pe23
-rw-r--r-- 1 felipe users         0 Dec 21 00:01 fort.75.pe24
-rw-r--r-- 1 felipe users         0 Dec 21 00:01 fort.75.pe25
-rw-r--r-- 1 felipe users         0 Dec 21 00:01 fort.75.pe26
-rw-r--r-- 1 felipe users         0 Dec 21 00:01 fort.75.pe27
-rw-r--r-- 1 felipe users         0 Dec 21 00:01 fort.75.pe28
-rw-r--r-- 1 felipe users         0 Dec 21 00:01 fort.75.pe29
-rw-r--r-- 1 felipe users         0 Dec 21 00:01 fort.75.pe30
-rw-r--r-- 1 felipe users         0 Dec 21 00:01 fort.75.pe31
-rw-r--r-- 1 felipe users         0 Dec 21 00:01 fort.75.pe32
-rw-r--r-- 1 felipe users         0 Dec 21 00:01 fort.75.pe33
-rw-r--r-- 1 felipe users         0 Dec 21 00:01 fort.75.pe34
-rw-r--r-- 1 felipe users         0 Dec 21 00:01 fort.75.pe35
-rw-r--r-- 1 felipe users         0 Dec 21 00:01 fort.75.pe36
-rw-r--r-- 1 felipe users         0 Dec 21 00:01 fort.75.pe37
-rw-r--r-- 1 felipe users         0 Dec 21 00:01 fort.75.pe38
-rw-r--r-- 1 felipe users         0 Dec 21 00:01 fort.75.pe39
-rw-r--r-- 1 felipe users         0 Dec 21 00:01 fort.75.pe40
-rw-r--r-- 1 felipe users         0 Dec 21 00:01 fort.75.pe41
-rw-r--r-- 1 felipe users         0 Dec 21 00:01 fort.75.pe42
-rw-r--r-- 1 felipe users         0 Dec 21 00:01 fort.75.pe43
-rw-r--r-- 1 felipe users         0 Dec 21 00:01 fort.75.pe44
-rw-r--r-- 1 felipe users         0 Dec 21 00:01 fort.75.pe45
-rw-r--r-- 1 felipe users         0 Dec 21 00:01 fort.75.pe46
-rw-r--r-- 1 felipe users         0 Dec 21 00:01 fort.75.pe47
-rw-r--r-- 1 felipe users         0 Dec 21 00:01 fort.75.pe48
-rw-r--r-- 1 felipe users         0 Dec 21 00:01 fort.75.pe49
-rw-r--r-- 1 felipe users         0 Dec 21 00:01 fort.75.pe50
-rw-r--r-- 1 felipe users         0 Dec 21 00:01 fort.75.pe51
-rw-r--r-- 1 felipe users         0 Dec 21 00:01 fort.75.pe52
-rw-r--r-- 1 felipe users         0 Dec 21 00:01 fort.75.pe53
-rw-r--r-- 1 felipe users         0 Dec 21 00:01 fort.75.pe54
-rw-r--r-- 1 felipe users         0 Dec 21 00:01 fort.75.pe55
-rw-r--r-- 1 felipe users         0 Dec 21 00:01 fort.75.pe56
-rw-r--r-- 1 felipe users         0 Dec 21 00:01 fort.75.pe57
-rw-r--r-- 1 felipe users         0 Dec 21 00:01 fort.75.pe58
-rw-r--r-- 1 felipe users         0 Dec 21 00:01 fort.75.pe59
-rw-r--r-- 1 felipe users         0 Dec 21 00:01 fort.75.pe60
-rw-r--r-- 1 felipe users         0 Dec 21 00:01 fort.75.pe61
-rw-r--r-- 1 felipe users         0 Dec 21 00:01 fort.75.pe62
-rw-r--r-- 1 felipe users         0 Dec 21 00:01 fort.75.pe63
-rw-r--r-- 1 felipe users         0 Dec 21 00:01 fort.77.pe00
-rw-r--r-- 1 felipe users         0 Dec 21 00:01 fort.77.pe01
-rw-r--r-- 1 felipe users         0 Dec 21 00:01 fort.77.pe02
-rw-r--r-- 1 felipe users         0 Dec 21 00:01 fort.77.pe03
-rw-r--r-- 1 felipe users         0 Dec 21 00:01 fort.77.pe04
-rw-r--r-- 1 felipe users         0 Dec 21 00:01 fort.77.pe05
-rw-r--r-- 1 felipe users         0 Dec 21 00:01 fort.77.pe06
-rw-r--r-- 1 felipe users         0 Dec 21 00:01 fort.77.pe07
-rw-r--r-- 1 felipe users         0 Dec 21 00:01 fort.77.pe08
-rw-r--r-- 1 felipe users         0 Dec 21 00:01 fort.77.pe09
-rw-r--r-- 1 felipe users         0 Dec 21 00:01 fort.77.pe10
-rw-r--r-- 1 felipe users         0 Dec 21 00:01 fort.77.pe11
-rw-r--r-- 1 felipe users         0 Dec 21 00:01 fort.77.pe12
-rw-r--r-- 1 felipe users         0 Dec 21 00:01 fort.77.pe13
-rw-r--r-- 1 felipe users         0 Dec 21 00:01 fort.77.pe14
-rw-r--r-- 1 felipe users         0 Dec 21 00:01 fort.77.pe15
-rw-r--r-- 1 felipe users         0 Dec 21 00:01 fort.77.pe16
-rw-r--r-- 1 felipe users         0 Dec 21 00:01 fort.77.pe17
-rw-r--r-- 1 felipe users         0 Dec 21 00:01 fort.77.pe18
-rw-r--r-- 1 felipe users         0 Dec 21 00:01 fort.77.pe19
-rw-r--r-- 1 felipe users         0 Dec 21 00:01 fort.77.pe20
-rw-r--r-- 1 felipe users         0 Dec 21 00:01 fort.77.pe21
-rw-r--r-- 1 felipe users         0 Dec 21 00:01 fort.77.pe22
-rw-r--r-- 1 felipe users         0 Dec 21 00:01 fort.77.pe23
-rw-r--r-- 1 felipe users         0 Dec 21 00:01 fort.77.pe24
-rw-r--r-- 1 felipe users         0 Dec 21 00:01 fort.77.pe25
-rw-r--r-- 1 felipe users         0 Dec 21 00:01 fort.77.pe26
-rw-r--r-- 1 felipe users         0 Dec 21 00:01 fort.77.pe27
-rw-r--r-- 1 felipe users         0 Dec 21 00:01 fort.77.pe28
-rw-r--r-- 1 felipe users         0 Dec 21 00:01 fort.77.pe29
-rw-r--r-- 1 felipe users         0 Dec 21 00:01 fort.77.pe30
-rw-r--r-- 1 felipe users         0 Dec 21 00:01 fort.77.pe31
-rw-r--r-- 1 felipe users         0 Dec 21 00:01 fort.77.pe32
-rw-r--r-- 1 felipe users         0 Dec 21 00:01 fort.77.pe33
-rw-r--r-- 1 felipe users         0 Dec 21 00:01 fort.77.pe34
-rw-r--r-- 1 felipe users         0 Dec 21 00:01 fort.77.pe35
-rw-r--r-- 1 felipe users         0 Dec 21 00:01 fort.77.pe36
-rw-r--r-- 1 felipe users         0 Dec 21 00:01 fort.77.pe37
-rw-r--r-- 1 felipe users         0 Dec 21 00:01 fort.77.pe38
-rw-r--r-- 1 felipe users         0 Dec 21 00:01 fort.77.pe39
-rw-r--r-- 1 felipe users         0 Dec 21 00:01 fort.77.pe40
-rw-r--r-- 1 felipe users         0 Dec 21 00:01 fort.77.pe41
-rw-r--r-- 1 felipe users         0 Dec 21 00:01 fort.77.pe42
-rw-r--r-- 1 felipe users         0 Dec 21 00:01 fort.77.pe43
-rw-r--r-- 1 felipe users         0 Dec 21 00:01 fort.77.pe44
-rw-r--r-- 1 felipe users         0 Dec 21 00:01 fort.77.pe45
-rw-r--r-- 1 felipe users         0 Dec 21 00:01 fort.77.pe46
-rw-r--r-- 1 felipe users         0 Dec 21 00:01 fort.77.pe47
-rw-r--r-- 1 felipe users         0 Dec 21 00:01 fort.77.pe48
-rw-r--r-- 1 felipe users         0 Dec 21 00:01 fort.77.pe49
-rw-r--r-- 1 felipe users         0 Dec 21 00:01 fort.77.pe50
-rw-r--r-- 1 felipe users         0 Dec 21 00:01 fort.77.pe51
-rw-r--r-- 1 felipe users         0 Dec 21 00:01 fort.77.pe52
-rw-r--r-- 1 felipe users         0 Dec 21 00:01 fort.77.pe53
-rw-r--r-- 1 felipe users         0 Dec 21 00:01 fort.77.pe54
-rw-r--r-- 1 felipe users         0 Dec 21 00:01 fort.77.pe55
-rw-r--r-- 1 felipe users         0 Dec 21 00:01 fort.77.pe56
-rw-r--r-- 1 felipe users         0 Dec 21 00:01 fort.77.pe57
-rw-r--r-- 1 felipe users         0 Dec 21 00:01 fort.77.pe58
-rw-r--r-- 1 felipe users         0 Dec 21 00:01 fort.77.pe59
-rw-r--r-- 1 felipe users         0 Dec 21 00:01 fort.77.pe60
-rw-r--r-- 1 felipe users         0 Dec 21 00:01 fort.77.pe61
-rw-r--r-- 1 felipe users         0 Dec 21 00:01 fort.77.pe62
-rw-r--r-- 1 felipe users         0 Dec 21 00:01 fort.77.pe63
-rw-r--r-- 1 felipe users         0 Dec 21 00:01 fort.8.pe00
-rw-r--r-- 1 felipe users         0 Dec 21 00:01 fort.8.pe01
-rw-r--r-- 1 felipe users         0 Dec 21 00:01 fort.8.pe02
-rw-r--r-- 1 felipe users         0 Dec 21 00:01 fort.8.pe03
-rw-r--r-- 1 felipe users         0 Dec 21 00:01 fort.8.pe04
-rw-r--r-- 1 felipe users         0 Dec 21 00:01 fort.8.pe05
-rw-r--r-- 1 felipe users         0 Dec 21 00:01 fort.8.pe06
-rw-r--r-- 1 felipe users         0 Dec 21 00:01 fort.8.pe07
-rw-r--r-- 1 felipe users         0 Dec 21 00:01 fort.8.pe08
-rw-r--r-- 1 felipe users         0 Dec 21 00:01 fort.8.pe09
-rw-r--r-- 1 felipe users         0 Dec 21 00:01 fort.8.pe10
-rw-r--r-- 1 felipe users         0 Dec 21 00:01 fort.8.pe11
-rw-r--r-- 1 felipe users         0 Dec 21 00:01 fort.8.pe12
-rw-r--r-- 1 felipe users         0 Dec 21 00:01 fort.8.pe13
-rw-r--r-- 1 felipe users         0 Dec 21 00:01 fort.8.pe14
-rw-r--r-- 1 felipe users         0 Dec 21 00:01 fort.8.pe15
-rw-r--r-- 1 felipe users         0 Dec 21 00:01 fort.8.pe16
-rw-r--r-- 1 felipe users         0 Dec 21 00:01 fort.8.pe17
-rw-r--r-- 1 felipe users         0 Dec 21 00:01 fort.8.pe18
-rw-r--r-- 1 felipe users         0 Dec 21 00:01 fort.8.pe19
-rw-r--r-- 1 felipe users         0 Dec 21 00:01 fort.8.pe20
-rw-r--r-- 1 felipe users         0 Dec 21 00:01 fort.8.pe21
-rw-r--r-- 1 felipe users         0 Dec 21 00:01 fort.8.pe22
-rw-r--r-- 1 felipe users         0 Dec 21 00:01 fort.8.pe23
-rw-r--r-- 1 felipe users         0 Dec 21 00:01 fort.8.pe24
-rw-r--r-- 1 felipe users         0 Dec 21 00:01 fort.8.pe25
-rw-r--r-- 1 felipe users         0 Dec 21 00:01 fort.8.pe26
-rw-r--r-- 1 felipe users         0 Dec 21 00:01 fort.8.pe27
-rw-r--r-- 1 felipe users         0 Dec 21 00:01 fort.8.pe28
-rw-r--r-- 1 felipe users         0 Dec 21 00:01 fort.8.pe29
-rw-r--r-- 1 felipe users         0 Dec 21 00:01 fort.8.pe30
-rw-r--r-- 1 felipe users         0 Dec 21 00:01 fort.8.pe31
-rw-r--r-- 1 felipe users         0 Dec 21 00:01 fort.8.pe32
-rw-r--r-- 1 felipe users         0 Dec 21 00:01 fort.8.pe33
-rw-r--r-- 1 felipe users         0 Dec 21 00:01 fort.8.pe34
-rw-r--r-- 1 felipe users         0 Dec 21 00:01 fort.8.pe35
-rw-r--r-- 1 felipe users         0 Dec 21 00:01 fort.8.pe36
-rw-r--r-- 1 felipe users         0 Dec 21 00:01 fort.8.pe37
-rw-r--r-- 1 felipe users         0 Dec 21 00:01 fort.8.pe38
-rw-r--r-- 1 felipe users         0 Dec 21 00:01 fort.8.pe39
-rw-r--r-- 1 felipe users         0 Dec 21 00:01 fort.8.pe40
-rw-r--r-- 1 felipe users         0 Dec 21 00:01 fort.8.pe41
-rw-r--r-- 1 felipe users         0 Dec 21 00:01 fort.8.pe42
-rw-r--r-- 1 felipe users         0 Dec 21 00:01 fort.8.pe43
-rw-r--r-- 1 felipe users         0 Dec 21 00:01 fort.8.pe44
-rw-r--r-- 1 felipe users         0 Dec 21 00:01 fort.8.pe45
-rw-r--r-- 1 felipe users         0 Dec 21 00:01 fort.8.pe46
-rw-r--r-- 1 felipe users         0 Dec 21 00:01 fort.8.pe47
-rw-r--r-- 1 felipe users         0 Dec 21 00:01 fort.8.pe48
-rw-r--r-- 1 felipe users         0 Dec 21 00:01 fort.8.pe49
-rw-r--r-- 1 felipe users         0 Dec 21 00:01 fort.8.pe50
-rw-r--r-- 1 felipe users         0 Dec 21 00:01 fort.8.pe51
-rw-r--r-- 1 felipe users         0 Dec 21 00:01 fort.8.pe52
-rw-r--r-- 1 felipe users         0 Dec 21 00:01 fort.8.pe53
-rw-r--r-- 1 felipe users         0 Dec 21 00:01 fort.8.pe54
-rw-r--r-- 1 felipe users         0 Dec 21 00:01 fort.8.pe55
-rw-r--r-- 1 felipe users 151519240 Dec 21 00:20 fort.8.pe56
-rw-r--r-- 1 felipe users 151519240 Dec 21 00:20 fort.8.pe57
-rw-r--r-- 1 felipe users 151519240 Dec 21 00:20 fort.8.pe58
-rw-r--r-- 1 felipe users 151519240 Dec 21 00:20 fort.8.pe59
-rw-r--r-- 1 felipe users 151519240 Dec 21 00:20 fort.8.pe60
-rw-r--r-- 1 felipe users 151519240 Dec 21 00:20 fort.8.pe61
-rw-r--r-- 1 felipe users 151519240 Dec 21 00:20 fort.8.pe62
-rw-r--r-- 1 felipe users 151519240 Dec 21 00:20 fort.8.pe63
-rw-r--r-- 1 felipe users  84114468 Dec 21 00:01 fort.9
-rw-r--r-- 1 felipe users 220251171 Dec 21 00:01 fort.98
-rw-r--r-- 1 felipe users        33 Dec 21 00:01 INPUT
-rwxr-xr-x 1 felipe users 104622352 Dec 21 00:01 Pproperties
file fort.98 saved as /home/felipe/Wide-Band-Gap/Ga2O3/18_HF/PRISTINE/GaO_PRISTINE_18HF_ANBD.f98
removing temporary directories /home/felipe/tmp/tmp_p195806_felipe from each node
