date Sat Dec 20 03:04:02 PM CET 2025
master hostname valdubon
master system Linux valdubon 6.4.0-150600.23.73-default #1 SMP PREEMPT_DYNAMIC Tue Oct 7 08:43:02 UTC 2025 (46f6a23) x86_64 x86_64 x86_64 GNU/Linux
user felipe
output data in /home/felipe/Wide-Band-Gap/Ga2O3/18_HF/TETRA/GaO_TETRA_18HF_ANBD.outp
mpirun executable in /home/felipe/openmpi-4.1.5/bin
file machines.LINUX in /home/felipe/CRYSTAL23/utils23
list of nodes in /home/felipe/CRYSTAL23/utils23/nodes.par
creating temporary directories /home/felipe/tmp/tmp_p193468_felipe on each node
copying input file on each node
scf guess from /home/felipe/Wide-Band-Gap/Ga2O3/18_HF/TETRA/GaO_TETRA_18HF.f9
copying Pproperties executable on each node
properties input data in /home/felipe/Wide-Band-Gap/Ga2O3/18_HF/TETRA/GaO_TETRA_18HF_ANBD.d3
NEWK
0 0
1 0
ANBD
1
0
0.05
1
END
copying input file on each node
wave function formatted data from /home/felipe/Wide-Band-Gap/Ga2O3/18_HF/TETRA/GaO_TETRA_18HF.f98
          64 PROCESSORS WORKING

         
 *******************************************************************************
 *                                                                             *
 *                               CRYSTAL23                                     *
 *                      public : 1.0.1 - October 2022                          *
 *                       HTTP://WWW.CRYSTAL.UNITO.IT                           *
 *                                                                             *
 *                              MAIN AUTHORS                                   *
 *                                                                             *
 *  R. DOVESI(1,11), V.R. SAUNDERS(2), C. ROETTI(1,11), R. ORLANDO(1,11),      *
 *  C.M. ZICOVICH-WILSON(1,3), F. PASCALE(4), B. CIVALLERI(1,11),              *
 *  K. DOLL(5), N.M. HARRISON(6), I.J. BUSH(7), Ph. D'ARCO(8),                 *
 *  M. LLUNELL(9), M. CAUSA'(10), Y. NOEL(8), L. MASCHIO(1,11), A. ERBA(1,11)  *
 *  M. RE'RAT(14), S. CASASSA(1,11), B.G. SEARLE(2), J.K. DESMARAIS(1)         *
 *                                                                             *
 *        CONTRIBUTIONS TO THE CODE HAVE ALSO BEEN GIVEN BY                    *
 *                                                                             *
 *  M. FERRABONE(1,11), M. DE LA PIERRE(1,11), M. FERRERO(1,11),               *
 *  J. BAIMA(1,11), E. ALBANESE(1,11), M.F. PEINTINGER(12), R. BAST(13),       *
 *  B. KIRTMAN(15), V. LACIVITA(1,11), R. DEMICHELIS(1,16)                     *
 *  G. BRANDEBURG(17), S. SALUSTRO(1,11), G. SANSONE(1,11)                     *
 *  M.T. RUGGIERO(18), L.E. DAGA(1), L. DONA'(1), A. COSSARD(1)                *
 *                                                                             *
 * (1) THEORETICAL CHEMISTRY GROUP - UNIVERSITA' DI TORINO - TORINO (ITALY)    *
 * (2) SCIENTIFIC COMPUTING DEPARTMENT - STFC DARESBURY (UK)                   *
 * (3) UNIVERSIDAD AUTONOMA DEL ESTADO DE MORELOS - CUERNAVACA (MEXICO)        *
 * (4) UNIVERSITE' DE LORRAINE - NANCY (FRANCE)                                *
 * (5) UNIVERSITAET STUTTGART- STUTTGART (GERMANY)                             *
 * (6) IMPERIAL COLLEGE - LONDON (UK)                                          *
 * (7) SCIENTIFIC COMPUTING DEPARTMENT - STFC RAL (UK)                         *
 * (8) UPMC - SORBONNE UNIVERSITES - PARIS (FRANCE)                            *
 * (9) UNIVERSIDAD DE BARCELONA - BARCELONA (SPAIN)                            *
 *(10) UNIVERSITA' DI NAPOLI "FEDERICO II" - NAPOLI (ITALY)                    *
 *(11) NIS - NANOSTRUCTURED INTERFACES AND SURFACES - TORINO (ITALY)           *
 *(12) MPI FUER CHEMISCHE ENERGIEKONVERSION - MUELHEIM AN DER RUHR (GERMANY)   *
 *(13) UNIVERSITY OF TROMSO - TROMSO (NORWAY)                                  *
 *(14) UNIVERSITE' DE PAU ET DES PAYS DE L'ADOUR - PAU (FRANCE)                *
 *(15) UNIVERSITY OF CALIFORNIA SANTA BARBARA - SANTA BARBARA (USA)            *
 *(16) CURTIN UNIVERSITY - PERTH (AUSTRALIA)                                   *
 *(17) UNIVERSITY COLLEGE LONDON - LONDON (UK)                                 *
 *(18) UNIVERSITY OF VERMONT - BURLINGTON (USA)                                *
 *                                                                             *
 *******************************************************************************
 EEEEEEEEEE STARTING  DATE 20 12 2025 TIME 15:04:06.9
 INFORMATION **** SET_MPP **** PCRYSTAL CALCULATION

 *******************************************************************************
 β-Ga₂O₃  2×2×2 super-cell  –  neutral VGa(tet)  –  HSE06  –  spin p
 CRYSTAL - PROPERTIES - TYPE OF CALCULATION :  UNRESTRICTED OPEN SHELL
 *******************************************************************************
 SPIN POLARIZED SYSTEM: SUMMED SPIN DENSITY    3.00000000

 KOHN-SHAM HAMILTONIAN

 (EXCHANGE)[CORRELATION] FUNCTIONAL:(HSE06 SR/GGA)[PERDEW-BURKE-ERNZERHOF]

 RANGE-SEPARATED HYBRID FUNCTIONAL 
 OMEGA (SHORT-RANGE)[LONG-RANGE]:(    0.1100)[    0.0000]

 HYBRID EXCHANGE - PERCENTAGE OF FOCK EXCHANGE    18.0000

 SPIN POLARIZED DFT SELECTED

 DIRECT LATTICE VECTOR COMPONENTS (ANGSTROM)
        24.66382   -0.00018    0.00000
         0.00000    6.12192    0.00000
        -2.78185    0.00022   11.31861

 LATTICE PARAMETERS  (ANGSTROM AND DEGREES) - PRIMITIVE CELL
       A          B          C         ALPHA      BETA     GAMMA        VOLUME
   24.66382    6.12192   11.65546     89.9989  103.8083   90.0004    1708.99672
 *******************************************************************************
 N. OF ATOMS PER CELL       160 COULOMB OVERLAP TOL          (T1) 10**   -7
 NUMBER OF SHELLS          1728 COULOMB PENETRATION TOL      (T2) 10**   -7
 NUMBER OF AO              4352 EXCHANGE OVERLAP TOL         (T3) 10**   -7
 N. OF ELECTRONS PER CELL  2721 EXCHANGE PSEUDO OVP (F(G))   (T4) 10**   -7
 CORE ELECTRONS PER CELL   1956 EXCHANGE PSEUDO OVP (P(G))   (T5) 10**  -14
 N. OF SYMMETRY OPERATORS     1 POLE ORDER IN MONO ZONE                   4
 *******************************************************************************
   ATOM N.AT.  SHELL    X(A)      Y(A)      Z(A)      EXAD       N.ELECT.
 *******************************************************************************
    1   31 GA   15    -4.663    -1.530    -1.156   2.831E-01      29.207
    2   31 GA   15    -3.383    -1.531    -6.777   2.831E-01      29.281
    3    0 XX   15    -4.740     1.544    -1.198   2.831E-01      -0.076
    4   31 GA   15    -6.175     1.530     4.476   2.831E-01      29.283
    5   31 GA   15     7.558    -1.531    -1.162   2.831E-01      29.270
    6   31 GA   15     6.178    -1.531     4.497   2.831E-01      29.269
    7   31 GA   15     7.558     1.530    -1.162   2.831E-01      29.270
    8   31 GA   15     6.177     1.530     4.496   2.831E-01      29.269
    9   31 GA   15     1.399     0.017    -1.171   2.831E-01      29.273
   10   31 GA   15     0.026     0.001     4.495   2.831E-01      29.270
   11   31 GA   15     1.399     3.044    -1.171   2.831E-01      29.273
   12   31 GA   15     0.026     3.060     4.495   2.831E-01      29.270
   13   31 GA   15   -10.963     0.001    -1.155   2.831E-01      29.270
   14   31 GA   15    -9.555     0.000    -6.830   2.831E-01      29.273
   15   31 GA   15   -10.963     3.060    -1.155   2.831E-01      29.270
   16   31 GA   15    -9.555     3.060    -6.830   2.831E-01      29.273
   17   31 GA   15     4.769     1.530     1.159   2.831E-01      29.271
   18   31 GA   15     3.376     1.530     6.819   2.831E-01      29.269
   19   31 GA   15     4.770    -1.531     1.157   2.831E-01      29.272
   20   31 GA   15     3.374    -1.531     6.818   2.831E-01      29.269
   21   31 GA   15    -7.585     1.530     1.130   2.831E-01      29.261
   22   31 GA   15    -6.157     1.530    -4.420   2.831E-01      29.248
   23   31 GA   15    -7.576    -1.531     1.155   2.831E-01      29.286
   24   31 GA   15    -6.189    -1.531    -4.464   2.831E-01      29.268
   25   31 GA   15    -1.368    -0.005     1.156   2.831E-01      29.283
   26   31 GA   15     0.018    -0.004    -4.498   2.831E-01      29.270
   27   31 GA   15    -1.368    -3.056     1.156   2.831E-01      29.283
   28   31 GA   15     0.018    -3.057    -4.498   2.831E-01      29.270
   29   31 GA   15    10.931    -0.000     1.165   2.831E-01      29.272
   30   31 GA   15     9.512     0.000     6.816   2.831E-01      29.269
   31   31 GA   15    10.931     3.061     1.165   2.831E-01      29.272
   32   31 GA   15     9.512     3.060     6.816   2.831E-01      29.269
   33   31 GA   15    -4.659    -0.024     1.821   2.831E-01      29.309
   34   31 GA   15    -3.239     0.047    -3.810   2.831E-01      29.307
   35   31 GA   15    -4.659    -3.038     1.821   2.831E-01      29.309
   36   31 GA   15    -3.239     3.013    -3.810   2.831E-01      29.307
   37   31 GA   15     7.681    -0.000     1.774   2.831E-01      29.302
   38   31 GA   15     6.285    -0.000     7.438   2.831E-01      29.301
   39   31 GA   15     7.681     3.061     1.774   2.831E-01      29.302
   40   31 GA   15     6.285    -3.061     7.438   2.831E-01      29.301
   41   31 GA   15     1.531     1.530     1.777   2.831E-01      29.304
   42   31 GA   15     2.924     1.530    -3.886   2.831E-01      29.305
   43   31 GA   15     1.537    -1.531     1.769   2.831E-01      29.302
   44   31 GA   15     2.927    -1.531    -3.885   2.831E-01      29.301
   45   31 GA   15   -10.811     1.531     1.785   2.831E-01      29.307
   46   31 GA   15    -9.462     1.530    -3.895   2.831E-01      29.307
   47   31 GA   15   -10.810    -1.530     1.784   2.831E-01      29.306
   48   31 GA   15    -9.465    -1.531    -3.896   2.831E-01      29.306
   49   31 GA   15     4.645     0.001    -1.782   2.831E-01      29.303
   50   31 GA   15     3.264     0.001     3.876   2.831E-01      29.303
   51   31 GA   15     4.645     3.060    -1.782   2.831E-01      29.303
   52   31 GA   15     3.264     3.060     3.876   2.831E-01      29.303
   53   31 GA   15    -7.755     0.003    -1.807   2.831E-01      29.302
   54   31 GA   15    -6.285     0.003    -7.423   2.831E-01      29.309
   55   31 GA   15    -7.755     3.058    -1.807   2.831E-01      29.301
   56   31 GA   15    -6.285     3.057    -7.422   2.831E-01      29.309
   57   31 GA   15    -1.605     1.530    -1.762   2.831E-01      29.291
   58   31 GA   15    -2.896     1.531     3.886   2.831E-01      29.309
   59   31 GA   15    -1.458    -1.530    -1.809   2.831E-01      29.319
   60   31 GA   15    -2.888    -1.530     3.889   2.831E-01      29.313
   61   31 GA   15    10.793     1.530    -1.778   2.831E-01      29.302
   62   31 GA   15     9.413     1.530     3.872   2.831E-01      29.304
   63   31 GA   15    10.794    -1.531    -1.778   2.831E-01      29.303
   64   31 GA   15     9.413    -1.531     3.872   2.831E-01      29.303
   65    8 O     8    -5.800    -0.026    -1.454   4.535E-01       8.619
   66    8 O     8    -7.145    -0.010     4.149   4.535E-01       9.097
   67    8 O     8    -5.800    -3.034    -1.454   4.535E-01       8.619
   68    8 O     8    -7.145    -3.051     4.149   4.535E-01       9.097
   69    8 O     8     6.572    -0.000    -1.454   4.535E-01       9.088
   70    8 O     8     5.190    -0.000     4.205   4.535E-01       9.088
   71    8 O     8     6.572     3.061    -1.454   4.535E-01       9.088
   72    8 O     8     5.190    -3.061     4.205   4.535E-01       9.088
   73    8 O     8     0.451    -1.531    -1.452   4.535E-01       9.100
   74    8 O     8    -0.971    -1.531     4.198   4.535E-01       9.090
   75    8 O     8     0.388     1.530    -1.463   4.535E-01       9.073
   76    8 O     8    -0.973     1.530     4.203   4.535E-01       9.088
   77    8 O     8   -11.948    -1.530    -1.444   4.535E-01       9.087
   78    8 O     8    11.342    -1.531     4.195   4.535E-01       9.088
   79    8 O     8   -11.949     1.530    -1.445   4.535E-01       9.087
   80    8 O     8    11.340     1.530     4.195   4.535E-01       9.086
   81    8 O     8     5.763    -0.000     1.450   4.535E-01       9.089
   82    8 O     8     7.152    -0.001    -4.209   4.535E-01       9.090
   83    8 O     8     5.763     3.061     1.450   4.535E-01       9.089
   84    8 O     8     7.152    -3.061    -4.209   4.535E-01       9.090
   85    8 O     8    -6.555     0.009     1.355   4.535E-01       9.081
   86    8 O     8    -5.237    -0.015    -4.026   4.535E-01       9.079
   87    8 O     8    -6.555     3.052     1.355   4.535E-01       9.081
   88    8 O     8    -5.237    -3.046    -4.025   4.535E-01       9.080
   89    8 O     8    -0.395     1.531     1.477   4.535E-01       9.089
   90    8 O     8     1.013     1.530    -4.240   4.535E-01       9.087
   91    8 O     8    -0.387    -1.530     1.485   4.535E-01       9.091
   92    8 O     8     1.029    -1.531    -4.245   4.535E-01       9.086
   93    8 O     8    11.928     1.530     1.461   4.535E-01       9.089
   94    8 O     8   -11.377     1.530    -4.213   4.535E-01       9.089
   95    8 O     8    11.929    -1.531     1.462   4.535E-01       9.089
   96    8 O     8   -11.379    -1.531    -4.214   4.535E-01       9.090
   97    8 O     8    -4.209     1.530     0.663   4.535E-01       8.582
   98    8 O     8    -2.947     1.530    -5.090   4.535E-01       9.087
   99    8 O     8    -4.334    -1.531     0.638   4.535E-01       9.090
  100    8 O     8    -3.004    -1.531    -4.994   4.535E-01       9.084
  101    8 O     8     8.038     1.530     0.617   4.535E-01       9.110
  102    8 O     8     6.651     1.530     6.280   4.535E-01       9.114
  103    8 O     8     8.038    -1.531     0.617   4.535E-01       9.110
  104    8 O     8     6.652    -1.531     6.280   4.535E-01       9.114
  105    8 O     8     1.879     0.005     0.615   4.535E-01       9.111
  106    8 O     8     3.295     0.001    -5.048   4.535E-01       9.112
  107    8 O     8     1.879     3.056     0.616   4.535E-01       9.111
  108    8 O     8     3.295     3.060    -5.048   4.535E-01       9.112
  109    8 O     8   -10.469     0.000     0.623   4.535E-01       9.110
  110    8 O     8    -9.097     0.001    -5.047   4.535E-01       9.107
  111    8 O     8   -10.469     3.061     0.623   4.535E-01       9.110
  112    8 O     8    -9.097     3.060    -5.047   4.535E-01       9.107
  113    8 O     8     4.304     1.530    -0.621   4.535E-01       9.107
  114    8 O     8     2.921     1.530     5.036   4.535E-01       9.107
  115    8 O     8     4.304    -1.531    -0.623   4.535E-01       9.106
  116    8 O     8     2.920    -1.530     5.034   4.535E-01       9.108
  117    8 O     8    -8.091     1.530    -0.636   4.535E-01       9.099
  118    8 O     8    -6.574     1.530    -6.232   4.535E-01       9.097
  119    8 O     8    -8.063    -1.530    -0.624   4.535E-01       9.088
  120    8 O     8    -6.604    -1.531    -6.258   4.535E-01       9.108
  121    8 O     8    -1.827    -0.025    -0.612   4.535E-01       9.093
  122    8 O     8    -3.249    -0.003     5.030   4.535E-01       9.109
  123    8 O     8    -1.827    -3.036    -0.613   4.535E-01       9.094
  124    8 O     8    -3.249    -3.058     5.030   4.535E-01       9.109
  125    8 O     8    10.457    -0.000    -0.614   4.535E-01       9.108
  126    8 O     8     9.064    -0.000     5.031   4.535E-01       9.109
  127    8 O     8    10.457    -3.061    -0.614   4.535E-01       9.108
  128    8 O     8     9.064     3.061     5.031   4.535E-01       9.109
  129    8 O     8    -3.323     1.530    -2.574   4.535E-01       9.232
  130    8 O     8    -4.816     1.531     3.177   4.535E-01       9.232
  131    8 O     8    -3.381    -1.531    -2.453   4.535E-01       9.238
  132    8 O     8    -4.818    -1.530     3.202   4.535E-01       9.220
  133    8 O     8     8.907     1.530    -2.472   4.535E-01       9.230
  134    8 O     8     7.523     1.530     3.182   4.535E-01       9.229
  135    8 O     8     8.907    -1.530    -2.472   4.535E-01       9.230
  136    8 O     8     7.524    -1.531     3.182   4.535E-01       9.229
  137    8 O     8     2.759     0.007    -2.480   4.535E-01       9.229
  138    8 O     8     1.373     0.001     3.186   4.535E-01       9.228
  139    8 O     8     2.759     3.054    -2.479   4.535E-01       9.229
  140    8 O     8     1.373     3.060     3.186   4.535E-01       9.228
  141    8 O     8    -9.633    -0.001    -2.482   4.535E-01       9.230
  142    8 O     8   -10.961     0.003     3.205   4.535E-01       9.226
  143    8 O     8    -9.633    -3.060    -2.482   4.535E-01       9.230
  144    8 O     8   -10.961     3.058     3.205   4.535E-01       9.226
  145    8 O     8     3.430     1.530     2.473   4.535E-01       9.229
  146    8 O     8     4.821     1.530    -3.186   4.535E-01       9.229
  147    8 O     8     3.428    -1.531     2.469   4.535E-01       9.229
  148    8 O     8     4.817    -1.531    -3.186   4.535E-01       9.230
  149    8 O     8    -8.908     1.531     2.470   4.535E-01       9.223
  150    8 O     8    -7.576     1.530    -3.181   4.535E-01       9.222
  151    8 O     8    -8.911    -1.531     2.468   4.535E-01       9.223
  152    8 O     8    -7.586    -1.531    -3.195   4.535E-01       9.223
  153    8 O     8    -2.751     0.010     2.453   4.535E-01       9.216
  154    8 O     8    -1.304    -0.050    -3.202   4.535E-01       9.224
  155    8 O     8    -2.751     3.051     2.453   4.535E-01       9.216
  156    8 O     8    -1.304    -3.011    -3.202   4.535E-01       9.224
  157    8 O     8     9.583    -0.000     2.470   4.535E-01       9.229
  158    8 O     8    10.961    -0.000    -3.182   4.535E-01       9.229
  159    8 O     8     9.583    -3.061     2.470   4.535E-01       9.229
  160    8 O     8    10.961     3.060    -3.182   4.535E-01       9.229
 *******************************************************************************
 DE(K)                   0.000E+00  ENERGY LEVEL SHIFTING        0.00000
 TOTAL ENERGY -1.2847530581687E+05  CONVERGENCE ON ENER       -1.386E-06
 KIN. ENERGY   1.2830158215913E+05  VIR. COEFF.           1.01754194E+00
 N. OF SCF CYCLES               19  FERMI ENERGY              -0.100E+01
 WEIGHT OF F(I) IN F(I+1)      30
 SHRINK. FACT.(MONKH.)     2  2  2  SHRINKING FACTOR(GILAT NET)        2
 NUMBER OF K POINTS IN THE IBZ   8  CELL VOLUME (A.U.)      11532.881714
 *******************************************************************************

 GCALCO - MAX INDICES DIRECT LATTICE VECTOR     7    29    15
 NO.OF VECTORS CREATED 6999 STARS 3500 RMAX   268.48676 BOHR
 TTTTTTTTTTTTTTTTTTTTTTTTTTTTTT gordsh1     TELAPSE        1.70 TCPU        1.35

 MATRIX SIZE: P(G)10867308, F(G) 1872566, P(G) IRR 5447350, F(G) IRR 1878870
 MAX G-VECTOR INDEX FOR 1- AND 2-ELECTRON INTEGRALS  85


 CAPPA:IS1  2;IS2  2;IS3  2; K PTS MONK NET   8; SYMMOPS:K SPACE   2;G SPACE   1


 CAPPA:IS1  2;IS2  2;IS3  2; K PTS MONK NET   8; SYMMOPS:K SPACE   2;G SPACE   1

 *******************************************************************************
 RESTART WITH NEW K POINTS NET
 *******************************************************************************
 POINTS IN THE IBZ                   8 POINTS(GILAT NET)                 8
 SHRINK FACTORS(MONK.)         2  2  2 SHRINK FACTOR(GILAT)              2
 *******************************************************************************
 *** K POINTS COORDINATES (OBLIQUE COORDINATES IN UNITS OF IS =  2)
   1-R(  0  0  0)   2-R(  1  0  0)   3-R(  0  1  0)   4-R(  1  1  0)
   5-R(  0  0  1)   6-R(  1  0  1)   7-R(  0  1  1)   8-R(  1  1  1)

 FERMI ENERGY AND DENSITY MATRIX CALCULATION ON COMPUTED EIGENVECTORS
 DENSITY MATRIX AT SCF CYCLE ( 19+1)

 SPIN LOCKING: NO ENERGY GAP COMPUTED

 CORE DENSITY MATRIX CALCULATION
 TTTTTTTTTTTTTTTTTTTTTTTTTTTTTT NEWK        TELAPSE      642.85 TCPU      642.26


 *******************************************************************************
  ANALYSIS OF THE MAIN COMPONENTS OF THE CRYSTALLINE ORBITALS
  MODULUS OF MINIMUM COEFFICIENT  0.50000E-01

  BANDS ANALYZED:   388
 *******************************************************************************

    K POINT   1   (  0  0  0)
    ALPHA      ELECTRONS
    BAND  979    E(A.U.)=      -0.739502
 AO  350 D1 GA    9   RE=     0.08427
 AO  351 D2 GA    9   RE=    -0.11478
 AO  353 D4 GA    9   RE=    -0.19058
 AO  432 D1 GA   11   RE=    -0.08419
 AO  433 D2 GA   11   RE=     0.11478
 AO  435 D4 GA   11   RE=     0.19061
 AO  680 D3 GA   17   RE=     0.05425
 AO  762 D3 GA   19   RE=    -0.05679
 AO  887 D5 GA   22   RE=     0.10476
 AO  969 D5 GA   24   RE=    -0.09668
 AO 1006 D1 GA   25   RE=    -0.07445
 AO 1050 D4 GA   26   RE=    -0.21823
 AO 1088 D1 GA   27   RE=     0.07445
 AO 1132 D4 GA   28   RE=     0.21801
 AO 1375 D1 GA   34   RE=    -0.05097
 AO 1378 D4 GA   34   RE=     0.08743
 AO 1457 D1 GA   36   RE=     0.05099
 AO 1460 D4 GA   36   RE=    -0.08744
 AO 1498 D1 GA   37   RE=    -0.05078
 AO 1580 D1 GA   39   RE=     0.05081
 AO 1664 D3 GA   41   RE=    -0.06027
 AO 1666 D5 GA   41   RE=    -0.05173
 AO 1746 D3 GA   43   RE=     0.06429
 AO 1748 D5 GA   43   RE=     0.37365
 AO 1758 D5 GA   43   RE=     0.07257
 AO 1990 D1 GA   49   RE=    -0.06006
 AO 2032 D2 GA   50   RE=    -0.27969
 AO 2034 D4 GA   50   RE=     0.13820
 AO 2035 D5 GA   50   RE=     0.24152
 AO 2042 D2 GA   50   RE=    -0.05455
 AO 2072 D1 GA   51   RE=     0.05993
 AO 2114 D2 GA   52   RE=     0.27970
 AO 2116 D4 GA   52   RE=    -0.13817
 AO 2117 D5 GA   52   RE=     0.24126
 AO 2124 D2 GA   52   RE=     0.05456
 AO 2404 D5 GA   59   RE=    -0.08046
    BAND  980    E(A.U.)=      -0.739380
 AO  231 D5 GA    6   RE=    -0.06256
 AO  351 D2 GA    9   RE=     0.05886
 AO  353 D4 GA    9   RE=     0.10506
 AO  433 D2 GA   11   RE=    -0.05864
 AO  435 D4 GA   11   RE=    -0.10513
 AO 1050 D4 GA   26   RE=     0.08127
 AO 1132 D4 GA   28   RE=    -0.08127
 AO 1666 D5 GA   41   RE=     0.36465
 AO 1676 D5 GA   41   RE=     0.07104
 AO 1748 D5 GA   43   RE=     0.12876
 AO 2031 D1 GA   50   RE=    -0.05123
 AO 2032 D2 GA   50   RE=     0.16329
 AO 2033 D3 GA   50   RE=     0.08045
 AO 2034 D4 GA   50   RE=    -0.09292
 AO 2035 D5 GA   50   RE=     0.49578
 AO 2045 D5 GA   50   RE=     0.09640
 AO 2050 D5 GA   50   RE=     0.05373
 AO 2113 D1 GA   52   RE=     0.05100
 AO 2114 D2 GA   52   RE=    -0.16325
 AO 2115 D3 GA   52   RE=     0.08046
 AO 2116 D4 GA   52   RE=     0.09298
 AO 2117 D5 GA   52   RE=     0.49592
 AO 2127 D5 GA   52   RE=     0.09642
 AO 2132 D5 GA   52   RE=     0.05375
    BAND  981    E(A.U.)=      -0.739250
 AO   22 D1 GA    1   RE=    -0.14141
 AO   23 D2 GA    1   RE=    -0.10494
 AO  146 D2 GA    4   RE=    -0.26857
 AO  148 D4 GA    4   RE=     0.07305
 AO  156 D2 GA    4   RE=    -0.05321
 AO  186 D1 GA    5   RE=    -0.05142
 AO  187 D2 GA    5   RE=    -0.16201
 AO  189 D4 GA    5   RE=     0.08764
 AO  268 D1 GA    7   RE=    -0.05755
 AO  269 D2 GA    7   RE=    -0.15623
 AO  271 D4 GA    7   RE=     0.10459
 AO  392 D2 GA   10   RE=    -0.14299
 AO  474 D2 GA   12   RE=    -0.14298
 AO  514 D1 GA   13   RE=    -0.05126
 AO  555 D1 GA   14   RE=     0.08937
 AO  596 D1 GA   15   RE=    -0.05127
 AO  637 D1 GA   16   RE=     0.08925
 AO  720 D2 GA   18   RE=     0.06019
 AO  761 D2 GA   19   RE=    -0.09567
 AO  802 D2 GA   20   RE=     0.10236
 AO  884 D2 GA   22   RE=    -0.05746
 AO  966 D2 GA   24   RE=    -0.05455
 AO 1048 D2 GA   26   RE=     0.05341
 AO 1050 D4 GA   26   RE=     0.05589
 AO 1130 D2 GA   28   RE=     0.05362
 AO 1132 D4 GA   28   RE=     0.05624
 AO 1170 D1 GA   29   RE=     0.07609
 AO 1171 D2 GA   29   RE=     0.14409
 AO 1173 D4 GA   29   RE=    -0.07968
 AO 1252 D1 GA   31   RE=     0.07597
 AO 1253 D2 GA   31   RE=     0.14381
 AO 1255 D4 GA   31   RE=    -0.07959
 AO 1337 D4 GA   33   RE=     0.06913
 AO 1419 D4 GA   35   RE=     0.06919
 AO 1499 D2 GA   37   RE=    -0.09306
 AO 1501 D4 GA   37   RE=     0.07802
 AO 1581 D2 GA   39   RE=    -0.09300
 AO 1583 D4 GA   39   RE=     0.07835
 AO 1663 D2 GA   41   RE=     0.14835
 AO 1703 D1 GA   42   RE=     0.16404
 AO 1704 D2 GA   42   RE=    -0.05009
 AO 1744 D1 GA   43   RE=    -0.11472
 AO 1745 D2 GA   43   RE=     0.19929
 AO 1747 D4 GA   43   RE=    -0.06649
 AO 1785 D1 GA   44   RE=     0.22278
 AO 1786 D2 GA   44   RE=     0.06217
 AO 1829 D4 GA   45   RE=     0.05209
 AO 1911 D4 GA   47   RE=     0.05854
 AO 1990 D1 GA   49   RE=     0.12028
 AO 1991 D2 GA   49   RE=    -0.12353
 AO 2032 D2 GA   50   RE=     0.05957
 AO 2072 D1 GA   51   RE=     0.12051
 AO 2073 D2 GA   51   RE=    -0.12389
 AO 2114 D2 GA   52   RE=     0.05992
 AO 2157 D4 GA   53   RE=    -0.06824
 AO 2239 D4 GA   55   RE=    -0.06849
 AO 2360 D2 GA   58   RE=     0.08125
 AO 2362 D4 GA   58   RE=     0.05878
 AO 2485 D4 GA   61   RE=    -0.11748
 AO 2567 D4 GA   63   RE=    -0.11724
 AO 3240  S O    99   RE=     0.05135
    BAND  982    E(A.U.)=      -0.739104
 AO  146 D2 GA    4   RE=     0.09339
 AO  187 D2 GA    5   RE=    -0.09662
 AO  269 D2 GA    7   RE=    -0.07507
 AO  310 D2 GA    8   RE=    -0.06169
 AO  351 D2 GA    9   RE=     0.07461
 AO  391 D1 GA   10   RE=    -0.05031
 AO  392 D2 GA   10   RE=     0.11052
 AO  433 D2 GA   11   RE=     0.07463
 AO  473 D1 GA   12   RE=    -0.05030
 AO  474 D2 GA   12   RE=     0.11051
 AO  514 D1 GA   13   RE=     0.05882
 AO  555 D1 GA   14   RE=     0.08935
 AO  596 D1 GA   15   RE=     0.05873
 AO  637 D1 GA   16   RE=     0.08917
 AO  678 D1 GA   17   RE=    -0.06916
 AO  679 D2 GA   17   RE=     0.07606
 AO  719 D1 GA   18   RE=    -0.05372
 AO  720 D2 GA   18   RE=     0.14307
 AO  761 D2 GA   19   RE=     0.14114
 AO  763 D4 GA   19   RE=    -0.05398
 AO  801 D1 GA   20   RE=    -0.08949
 AO  802 D2 GA   20   RE=     0.08259
 AO 1009 D4 GA   25   RE=    -0.06670
 AO 1048 D2 GA   26   RE=     0.10290
 AO 1050 D4 GA   26   RE=    -0.09066
 AO 1091 D4 GA   27   RE=    -0.06661
 AO 1130 D2 GA   28   RE=     0.10308
 AO 1132 D4 GA   28   RE=    -0.09008
 AO 1170 D1 GA   29   RE=     0.07103
 AO 1171 D2 GA   29   RE=     0.17493
 AO 1173 D4 GA   29   RE=    -0.05047
 AO 1211 D1 GA   30   RE=     0.05231
 AO 1212 D2 GA   30   RE=     0.14465
 AO 1252 D1 GA   31   RE=     0.07114
 AO 1253 D2 GA   31   RE=     0.17504
 AO 1255 D4 GA   31   RE=    -0.05049
 AO 1293 D1 GA   32   RE=     0.05231
 AO 1294 D2 GA   32   RE=     0.14449
 AO 1499 D2 GA   37   RE=    -0.11857
 AO 1540 D2 GA   38   RE=    -0.08044
 AO 1542 D4 GA   38   RE=    -0.05476
 AO 1581 D2 GA   39   RE=    -0.11881
 AO 1622 D2 GA   40   RE=    -0.08013
 AO 1624 D4 GA   40   RE=    -0.05479
 AO 1662 D1 GA   41   RE=    -0.15376
 AO 1663 D2 GA   41   RE=    -0.23205
 AO 1665 D4 GA   41   RE=     0.12399
 AO 1703 D1 GA   42   RE=    -0.05673
 AO 1704 D2 GA   42   RE=    -0.07412
 AO 1744 D1 GA   43   RE=    -0.08932
 AO 1745 D2 GA   43   RE=    -0.22277
 AO 1747 D4 GA   43   RE=     0.10355
 AO 1785 D1 GA   44   RE=    -0.11680
 AO 1786 D2 GA   44   RE=    -0.19321
 AO 1788 D4 GA   44   RE=     0.07671
 AO 1990 D1 GA   49   RE=    -0.05775
 AO 1991 D2 GA   49   RE=    -0.05397
 AO 1993 D4 GA   49   RE=     0.07135
 AO 1994 D5 GA   49   RE=     0.05480
 AO 2034 D4 GA   50   RE=     0.06266
 AO 2072 D1 GA   51   RE=    -0.05770
 AO 2073 D2 GA   51   RE=    -0.05419
 AO 2075 D4 GA   51   RE=     0.07148
 AO 2076 D5 GA   51   RE=    -0.05703
 AO 2116 D4 GA   52   RE=     0.06257
 AO 2157 D4 GA   53   RE=    -0.07912
 AO 2239 D4 GA   55   RE=    -0.07949
 AO 2403 D4 GA   59   RE=    -0.09357
 AO 2485 D4 GA   61   RE=    -0.05559
 AO 2567 D4 GA   63   RE=    -0.05020
    BAND  983    E(A.U.)=      -0.738980
 AO  190 D5 GA    5   RE=    -0.06022
 AO  272 D5 GA    7   RE=    -0.05869
 AO 1707 D5 GA   42   RE=     0.27827
 AO 1717 D5 GA   42   RE=     0.05456
 AO 1789 D5 GA   44   RE=     0.28675
 AO 1799 D5 GA   44   RE=     0.05618
 AO 1992 D3 GA   49   RE=     0.09238
 AO 1994 D5 GA   49   RE=     0.55750
 AO 2004 D5 GA   49   RE=     0.10830
 AO 2009 D5 GA   49   RE=     0.06064
 AO 2074 D3 GA   51   RE=     0.09236
 AO 2076 D5 GA   51   RE=     0.55753
 AO 2086 D5 GA   51   RE=     0.10831
 AO 2091 D5 GA   51   RE=     0.06063
    BAND  984    E(A.U.)=      -0.738891
 AO  186 D1 GA    5   RE=     0.11995
 AO  187 D2 GA    5   RE=     0.30729
 AO  189 D4 GA    5   RE=    -0.12235
 AO  197 D2 GA    5   RE=     0.06022
 AO  227 D1 GA    6   RE=    -0.11243
 AO  228 D2 GA    6   RE=    -0.31414
 AO  230 D4 GA    6   RE=     0.11581
 AO  238 D2 GA    6   RE=    -0.06157
 AO  268 D1 GA    7   RE=    -0.11795
 AO  269 D2 GA    7   RE=    -0.31251
 AO  271 D4 GA    7   RE=     0.12066
 AO  279 D2 GA    7   RE=    -0.06128
 AO  309 D1 GA    8   RE=     0.11076
 AO  310 D2 GA    8   RE=     0.31066
 AO  312 D4 GA    8   RE=    -0.11818
 AO  320 D2 GA    8   RE=     0.06085
 AO  518 D5 GA   13   RE=     0.10861
 AO  559 D5 GA   14   RE=    -0.11068
 AO  600 D5 GA   15   RE=    -0.10861
 AO  641 D5 GA   16   RE=     0.11068
 AO  681 D4 GA   17   RE=    -0.05100
 AO 1502 D5 GA   37   RE=    -0.09279
 AO 1543 D5 GA   38   RE=     0.08243
 AO 1584 D5 GA   39   RE=     0.09306
 AO 1625 D5 GA   40   RE=    -0.08191
 AO 2482 D1 GA   61   RE=     0.08421
 AO 2483 D2 GA   61   RE=     0.17319
 AO 2485 D4 GA   61   RE=     0.08582
 AO 2523 D1 GA   62   RE=    -0.07916
 AO 2524 D2 GA   62   RE=    -0.16520
 AO 2526 D4 GA   62   RE=    -0.08648
 AO 2564 D1 GA   63   RE=    -0.08694
 AO 2565 D2 GA   63   RE=    -0.17136
 AO 2567 D4 GA   63   RE=    -0.09031
 AO 2605 D1 GA   64   RE=     0.07615
 AO 2606 D2 GA   64   RE=     0.16580
 AO 2608 D4 GA   64   RE=     0.08485
 AO 3852  S O   133   RE=    -0.06476
 AO 3870  S O   134   RE=     0.06501
 AO 3888  S O   135   RE=     0.06330
 AO 3906  S O   136   RE=    -0.06595
    BAND  985    E(A.U.)=      -0.738877
 AO  351 D2 GA    9   RE=    -0.07356
 AO  353 D4 GA    9   RE=    -0.22885
 AO  433 D2 GA   11   RE=     0.07344
 AO  435 D4 GA   11   RE=     0.22891
 AO 1006 D1 GA   25   RE=     0.06724
 AO 1007 D2 GA   25   RE=    -0.05092
 AO 1048 D2 GA   26   RE=     0.08577
 AO 1050 D4 GA   26   RE=     0.28438
 AO 1060 D4 GA   26   RE=     0.05570
 AO 1088 D1 GA   27   RE=    -0.06734
 AO 1089 D2 GA   27   RE=     0.05093
 AO 1130 D2 GA   28   RE=    -0.08578
 AO 1132 D4 GA   28   RE=    -0.28421
 AO 1142 D4 GA   28   RE=    -0.05567
 AO 1666 D5 GA   41   RE=     0.06430
 AO 1705 D3 GA   42   RE=    -0.08634
 AO 1707 D5 GA   42   RE=    -0.22658
 AO 1748 D5 GA   43   RE=    -0.07799
 AO 1787 D3 GA   44   RE=     0.08791
 AO 1789 D5 GA   44   RE=     0.23228
 AO 1990 D1 GA   49   RE=     0.09052
 AO 1991 D2 GA   49   RE=    -0.32572
 AO 1993 D4 GA   49   RE=     0.21240
 AO 2001 D2 GA   49   RE=    -0.06363
 AO 2031 D1 GA   50   RE=     0.10162
 AO 2034 D4 GA   50   RE=     0.06130
 AO 2072 D1 GA   51   RE=    -0.09028
 AO 2073 D2 GA   51   RE=     0.32516
 AO 2075 D4 GA   51   RE=    -0.21217
 AO 2083 D2 GA   51   RE=     0.06352
 AO 2113 D1 GA   52   RE=    -0.10162
 AO 2116 D4 GA   52   RE=    -0.06128
    BAND  986    E(A.U.)=      -0.738793
 AO   22 D1 GA    1   RE=    -0.07043
 AO   23 D2 GA    1   RE=    -0.05608
 AO  146 D2 GA    4   RE=    -0.10562
 AO  186 D1 GA    5   RE=     0.07487
 AO  187 D2 GA    5   RE=     0.14601
 AO  189 D4 GA    5   RE=    -0.06784
 AO  227 D1 GA    6   RE=     0.09429
 AO  228 D2 GA    6   RE=     0.22222
 AO  230 D4 GA    6   RE=    -0.11500
 AO  268 D1 GA    7   RE=     0.09238
 AO  269 D2 GA    7   RE=     0.14267
 AO  271 D4 GA    7   RE=    -0.06570
 AO  309 D1 GA    8   RE=     0.10593
 AO  310 D2 GA    8   RE=     0.20860
 AO  312 D4 GA    8   RE=    -0.10595
 AO  351 D2 GA    9   RE=     0.12496
 AO  433 D2 GA   11   RE=     0.12504
 AO  515 D2 GA   13   RE=     0.09004
 AO  556 D2 GA   14   RE=     0.08355
 AO  558 D4 GA   14   RE=    -0.06224
 AO  597 D2 GA   15   RE=     0.09020
 AO  638 D2 GA   16   RE=     0.08341
 AO  640 D4 GA   16   RE=    -0.06222
 AO  720 D2 GA   18   RE=     0.06901
 AO  760 D1 GA   19   RE=     0.06195
 AO  801 D1 GA   20   RE=     0.05801
 AO  802 D2 GA   20   RE=     0.05535
 AO  843 D2 GA   21   RE=     0.06807
 AO  845 D4 GA   21   RE=    -0.05282
 AO  883 D1 GA   22   RE=    -0.05734
 AO  927 D4 GA   23   RE=    -0.05018
 AO 1007 D2 GA   25   RE=     0.06623
 AO 1009 D4 GA   25   RE=    -0.06955
 AO 1048 D2 GA   26   RE=     0.10308
 AO 1089 D2 GA   27   RE=     0.06561
 AO 1091 D4 GA   27   RE=    -0.06913
 AO 1130 D2 GA   28   RE=     0.10333
 AO 1170 D1 GA   29   RE=    -0.05314
 AO 1171 D2 GA   29   RE=    -0.07806
 AO 1211 D1 GA   30   RE=    -0.06314
 AO 1212 D2 GA   30   RE=    -0.15059
 AO 1214 D4 GA   30   RE=     0.07581
 AO 1252 D1 GA   31   RE=    -0.05297
 AO 1253 D2 GA   31   RE=    -0.07797
 AO 1293 D1 GA   32   RE=    -0.06305
 AO 1294 D2 GA   32   RE=    -0.15080
 AO 1296 D4 GA   32   RE=     0.07589
 AO 1337 D4 GA   33   RE=     0.06716
 AO 1419 D4 GA   35   RE=     0.06722
 AO 1498 D1 GA   37   RE=    -0.07129
 AO 1539 D1 GA   38   RE=    -0.05729
 AO 1540 D2 GA   38   RE=     0.05965
 AO 1542 D4 GA   38   RE=    -0.07231
 AO 1580 D1 GA   39   RE=    -0.07144
 AO 1621 D1 GA   40   RE=    -0.05658
 AO 1622 D2 GA   40   RE=     0.05955
 AO 1624 D4 GA   40   RE=    -0.07163
 AO 1662 D1 GA   41   RE=    -0.11752
 AO 1663 D2 GA   41   RE=    -0.06186
 AO 1704 D2 GA   42   RE=    -0.22348
 AO 1706 D4 GA   42   RE=     0.05518
 AO 1744 D1 GA   43   RE=    -0.13892
 AO 1786 D2 GA   44   RE=    -0.20272
 AO 1868 D2 GA   46   RE=    -0.05065
 AO 1950 D2 GA   48   RE=    -0.06040
 AO 1991 D2 GA   49   RE=     0.05271
 AO 2031 D1 GA   50   RE=    -0.09630
 AO 2032 D2 GA   50   RE=     0.10186
 AO 2073 D2 GA   51   RE=     0.05333
 AO 2113 D1 GA   52   RE=    -0.09702
 AO 2114 D2 GA   52   RE=     0.10209
 AO 2441 D1 GA   60   RE=    -0.05386
 AO 2524 D2 GA   62   RE=    -0.06000
 AO 2526 D4 GA   62   RE=     0.08849
 AO 2606 D2 GA   64   RE=    -0.06630
 AO 2608 D4 GA   64   RE=     0.08212
    BAND  987    E(A.U.)=      -0.738580
 AO   26 D5 GA    1   RE=    -0.06178
 AO  350 D1 GA    9   RE=    -0.09300
 AO  394 D4 GA   10   RE=    -0.06725
 AO  432 D1 GA   11   RE=     0.09295
 AO  476 D4 GA   12   RE=     0.06730
 AO  846 D5 GA   21   RE=    -0.09779
 AO  887 D5 GA   22   RE=    -0.08196
 AO  928 D5 GA   23   RE=     0.09274
 AO  969 D5 GA   24   RE=     0.07792
 AO 1007 D2 GA   25   RE=     0.13416
 AO 1009 D4 GA   25   RE=    -0.18189
 AO 1047 D1 GA   26   RE=    -0.14372
 AO 1048 D2 GA   26   RE=    -0.08409
 AO 1049 D3 GA   26   RE=    -0.13538
 AO 1050 D4 GA   26   RE=    -0.11778
 AO 1089 D2 GA   27   RE=    -0.13423
 AO 1091 D4 GA   27   RE=     0.18211
 AO 1129 D1 GA   28   RE=     0.14381
 AO 1130 D2 GA   28   RE=     0.08385
 AO 1131 D3 GA   28   RE=    -0.13547
 AO 1132 D4 GA   28   RE=     0.11774
 AO 1378 D4 GA   34   RE=    -0.06338
 AO 1460 D4 GA   36   RE=     0.06330
 AO 1664 D3 GA   41   RE=     0.06140
 AO 1666 D5 GA   41   RE=     0.14131
 AO 1707 D5 GA   42   RE=     0.11576
 AO 1746 D3 GA   43   RE=    -0.07560
 AO 1748 D5 GA   43   RE=    -0.18308
 AO 1789 D5 GA   44   RE=    -0.11290
 AO 1990 D1 GA   49   RE=     0.12908
 AO 1993 D4 GA   49   RE=     0.06106
 AO 2031 D1 GA   50   RE=     0.33648
 AO 2032 D2 GA   50   RE=    -0.05426
 AO 2034 D4 GA   50   RE=     0.20817
 AO 2041 D1 GA   50   RE=     0.06504
 AO 2072 D1 GA   51   RE=    -0.12899
 AO 2075 D4 GA   51   RE=    -0.06120
 AO 2113 D1 GA   52   RE=    -0.33623
 AO 2114 D2 GA   52   RE=     0.05392
 AO 2116 D4 GA   52   RE=    -0.20810
 AO 2123 D1 GA   52   RE=    -0.06499
 AO 2157 D4 GA   53   RE=     0.05864
 AO 2239 D4 GA   55   RE=    -0.05838
 AO 2363 D5 GA   58   RE=    -0.05941
 AO 2402 D3 GA   59   RE=    -0.07929
 AO 2443 D3 GA   60   RE=     0.05568
    BAND  988    E(A.U.)=      -0.738533
 AO  186 D1 GA    5   RE=    -0.09422
 AO  187 D2 GA    5   RE=     0.06855
 AO  227 D1 GA    6   RE=    -0.08594
 AO  268 D1 GA    7   RE=     0.08835
 AO  269 D2 GA    7   RE=    -0.08218
 AO  309 D1 GA    8   RE=     0.09419
 AO  352 D3 GA    9   RE=    -0.05904
 AO  393 D3 GA   10   RE=    -0.05314
 AO  434 D3 GA   11   RE=     0.05910
 AO  475 D3 GA   12   RE=     0.05316
 AO  678 D1 GA   17   RE=    -0.06722
 AO  681 D4 GA   17   RE=     0.05823
 AO  720 D2 GA   18   RE=     0.07493
 AO  760 D1 GA   19   RE=     0.08225
 AO  763 D4 GA   19   RE=    -0.05745
 AO  802 D2 GA   20   RE=    -0.06819
 AO 1049 D3 GA   26   RE=     0.07489
 AO 1131 D3 GA   28   RE=    -0.07526
 AO 1502 D5 GA   37   RE=     0.05916
 AO 1543 D5 GA   38   RE=     0.06613
 AO 1584 D5 GA   39   RE=    -0.05931
 AO 1625 D5 GA   40   RE=    -0.06580
 AO 1663 D2 GA   41   RE=     0.36019
 AO 1665 D4 GA   41   RE=    -0.13974
 AO 1673 D2 GA   41   RE=     0.07004
 AO 1703 D1 GA   42   RE=     0.17236
 AO 1704 D2 GA   42   RE=     0.34971
 AO 1706 D4 GA   42   RE=    -0.13725
 AO 1714 D2 GA   42   RE=     0.06805
 AO 1745 D2 GA   43   RE=    -0.23922
 AO 1747 D4 GA   43   RE=     0.09195
 AO 1785 D1 GA   44   RE=    -0.09417
 AO 1786 D2 GA   44   RE=    -0.31093
 AO 1788 D4 GA   44   RE=     0.12373
 AO 1796 D2 GA   44   RE=    -0.06058
 AO 1992 D3 GA   49   RE=     0.08078
 AO 1994 D5 GA   49   RE=     0.23614
 AO 2033 D3 GA   50   RE=     0.05185
 AO 2035 D5 GA   50   RE=     0.10781
 AO 2074 D3 GA   51   RE=    -0.08067
 AO 2076 D5 GA   51   RE=    -0.23528
 AO 2115 D3 GA   52   RE=    -0.05189
 AO 2117 D5 GA   52   RE=    -0.10798
    BAND  989    E(A.U.)=      -0.738370
 AO  352 D3 GA    9   RE=    -0.06818
 AO  434 D3 GA   11   RE=    -0.06819
 AO 1006 D1 GA   25   RE=     0.05802
 AO 1049 D3 GA   26   RE=     0.56681
 AO 1051 D5 GA   26   RE=    -0.14309
 AO 1059 D3 GA   26   RE=     0.11181
 AO 1064 D3 GA   26   RE=     0.06072
 AO 1088 D1 GA   27   RE=    -0.05801
 AO 1131 D3 GA   28   RE=     0.56646
 AO 1133 D5 GA   28   RE=    -0.14307
 AO 1141 D3 GA   28   RE=     0.11174
 AO 1146 D3 GA   28   RE=     0.06068
 AO 1748 D5 GA   43   RE=    -0.11862
 AO 2031 D1 GA   50   RE=     0.12537
 AO 2034 D4 GA   50   RE=     0.07419
 AO 2113 D1 GA   52   RE=    -0.12530
 AO 2116 D4 GA   52   RE=    -0.07413
 AO 2320 D3 GA   57   RE=     0.12196
 AO 2361 D3 GA   58   RE=    -0.06343
 AO 2402 D3 GA   59   RE=     0.09745
 AO 2443 D3 GA   60   RE=    -0.06909
    BAND  990    E(A.U.)=      -0.738152
 AO   26 D5 GA    1   RE=    -0.08823
 AO  353 D4 GA    9   RE=    -0.09454
 AO  435 D4 GA   11   RE=     0.09482
 AO  721 D3 GA   18   RE=     0.06485
 AO  803 D3 GA   20   RE=    -0.05520
 AO  846 D5 GA   21   RE=    -0.11600
 AO  928 D5 GA   23   RE=     0.10918
 AO 1006 D1 GA   25   RE=    -0.06490
 AO 1007 D2 GA   25   RE=     0.18610
 AO 1009 D4 GA   25   RE=    -0.10879
 AO 1047 D1 GA   26   RE=    -0.14883
 AO 1048 D2 GA   26   RE=    -0.08668
 AO 1049 D3 GA   26   RE=     0.09437
 AO 1050 D4 GA   26   RE=    -0.08140
 AO 1088 D1 GA   27   RE=     0.06493
 AO 1089 D2 GA   27   RE=    -0.18576
 AO 1091 D4 GA   27   RE=     0.10878
 AO 1129 D1 GA   28   RE=     0.14910
 AO 1130 D2 GA   28   RE=     0.08673
 AO 1131 D3 GA   28   RE=     0.09425
 AO 1132 D4 GA   28   RE=     0.08122
 AO 1666 D5 GA   41   RE=    -0.08391
 AO 1707 D5 GA   42   RE=     0.05240
 AO 1746 D3 GA   43   RE=     0.05128
 AO 1748 D5 GA   43   RE=     0.18862
 AO 1789 D5 GA   44   RE=    -0.05735
 AO 1990 D1 GA   49   RE=     0.23731
 AO 1991 D2 GA   49   RE=    -0.11447
 AO 1993 D4 GA   49   RE=     0.17988
 AO 2031 D1 GA   50   RE=    -0.28727
 AO 2034 D4 GA   50   RE=    -0.18120
 AO 2041 D1 GA   50   RE=    -0.05575
 AO 2072 D1 GA   51   RE=    -0.23719
 AO 2073 D2 GA   51   RE=     0.11469
 AO 2075 D4 GA   51   RE=    -0.18012
 AO 2113 D1 GA   52   RE=     0.28733
 AO 2116 D4 GA   52   RE=     0.18147
 AO 2123 D1 GA   52   RE=     0.05576
 AO 2157 D4 GA   53   RE=     0.07982
 AO 2239 D4 GA   55   RE=    -0.07947
 AO 2361 D3 GA   58   RE=    -0.06311
 AO 2363 D5 GA   58   RE=    -0.07109
 AO 2445 D5 GA   60   RE=     0.05929
    BAND  991    E(A.U.)=      -0.738089
 AO   22 D1 GA    1   RE=    -0.08940
 AO   23 D2 GA    1   RE=    -0.07419
 AO   63 D1 GA    2   RE=    -0.20277
 AO  145 D1 GA    4   RE=    -0.30235
 AO  146 D2 GA    4   RE=    -0.10636
 AO  155 D1 GA    4   RE=    -0.06044
 AO  187 D2 GA    5   RE=     0.09917
 AO  269 D2 GA    7   RE=     0.05312
 AO  310 D2 GA    8   RE=    -0.08432
 AO  350 D1 GA    9   RE=    -0.05356
 AO  351 D2 GA    9   RE=     0.05240
 AO  394 D4 GA   10   RE=    -0.05219
 AO  432 D1 GA   11   RE=    -0.05348
 AO  433 D2 GA   11   RE=     0.05250
 AO  476 D4 GA   12   RE=    -0.05222
 AO  514 D1 GA   13   RE=    -0.10094
 AO  555 D1 GA   14   RE=     0.11590
 AO  596 D1 GA   15   RE=    -0.10084
 AO  637 D1 GA   16   RE=     0.11645
 AO  678 D1 GA   17   RE=    -0.09058
 AO  679 D2 GA   17   RE=     0.06455
 AO  801 D1 GA   20   RE=     0.06698
 AO  802 D2 GA   20   RE=    -0.07207
 AO  883 D1 GA   22   RE=     0.26371
 AO  893 D1 GA   22   RE=     0.05223
 AO  965 D1 GA   24   RE=     0.25471
 AO  975 D1 GA   24   RE=     0.05063
 AO 1007 D2 GA   25   RE=     0.07636
 AO 1089 D2 GA   27   RE=     0.07688
 AO 1170 D1 GA   29   RE=     0.08272
 AO 1211 D1 GA   30   RE=    -0.08229
 AO 1252 D1 GA   31   RE=     0.08257
 AO 1293 D1 GA   32   RE=    -0.08244
 AO 1375 D1 GA   34   RE=    -0.11705
 AO 1376 D2 GA   34   RE=    -0.05924
 AO 1377 D3 GA   34   RE=    -0.05576
 AO 1378 D4 GA   34   RE=    -0.06871
 AO 1457 D1 GA   36   RE=    -0.11701
 AO 1458 D2 GA   36   RE=    -0.05914
 AO 1459 D3 GA   36   RE=     0.05572
 AO 1460 D4 GA   36   RE=    -0.06871
 AO 1662 D1 GA   41   RE=     0.11799
 AO 1704 D2 GA   42   RE=    -0.07497
 AO 1745 D2 GA   43   RE=     0.07446
 AO 1785 D1 GA   44   RE=    -0.12162
 AO 1826 D1 GA   45   RE=     0.05045
 AO 1867 D1 GA   46   RE=    -0.05320
 AO 1868 D2 GA   46   RE=    -0.05112
 AO 1908 D1 GA   47   RE=     0.05373
 AO 1949 D1 GA   48   RE=    -0.05327
 AO 1950 D2 GA   48   RE=    -0.05485
 AO 1991 D2 GA   49   RE=     0.05950
 AO 1994 D5 GA   49   RE=     0.06574
 AO 2032 D2 GA   50   RE=    -0.09223
 AO 2034 D4 GA   50   RE=     0.05339
 AO 2035 D5 GA   50   RE=     0.06099
 AO 2073 D2 GA   51   RE=     0.05908
 AO 2076 D5 GA   51   RE=    -0.06557
 AO 2114 D2 GA   52   RE=    -0.09222
 AO 2116 D4 GA   52   RE=     0.05286
 AO 2117 D5 GA   52   RE=    -0.06085
 AO 2155 D2 GA   53   RE=     0.05025
 AO 2195 D1 GA   54   RE=    -0.10013
 AO 2196 D2 GA   54   RE=    -0.05722
 AO 2237 D2 GA   55   RE=     0.05066
 AO 2277 D1 GA   56   RE=    -0.10030
 AO 2278 D2 GA   56   RE=    -0.05744
 AO 2321 D4 GA   57   RE=     0.05798
 AO 2360 D2 GA   58   RE=     0.05067
 AO 2362 D4 GA   58   RE=     0.05546
 AO 2400 D1 GA   59   RE=     0.11326
 AO 2401 D2 GA   59   RE=    -0.06853
 AO 2482 D1 GA   61   RE=    -0.06110
 AO 2523 D1 GA   62   RE=     0.05965
 AO 2524 D2 GA   62   RE=     0.07437
 AO 2564 D1 GA   63   RE=    -0.06635
 AO 2565 D2 GA   63   RE=    -0.06955
 AO 2605 D1 GA   64   RE=     0.05669
 AO 2606 D2 GA   64   RE=     0.05856
    BAND  992    E(A.U.)=      -0.737899
 AO   63 D1 GA    2   RE=     0.05607
 AO  145 D1 GA    4   RE=     0.10216
 AO  186 D1 GA    5   RE=    -0.10442
 AO  227 D1 GA    6   RE=    -0.09311
 AO  228 D2 GA    6   RE=     0.05522
 AO  268 D1 GA    7   RE=     0.07736
 AO  269 D2 GA    7   RE=    -0.07728
 AO  309 D1 GA    8   RE=     0.09660
 AO  678 D1 GA   17   RE=    -0.14256
 AO  679 D2 GA   17   RE=     0.09746
 AO  681 D4 GA   17   RE=    -0.10241
 AO  719 D1 GA   18   RE=    -0.17062
 AO  720 D2 GA   18   RE=     0.05827
 AO  722 D4 GA   18   RE=    -0.07045
 AO  760 D1 GA   19   RE=     0.15737
 AO  761 D2 GA   19   RE=    -0.09591
 AO  763 D4 GA   19   RE=     0.09337
 AO  801 D1 GA   20   RE=     0.15167
 AO  802 D2 GA   20   RE=    -0.07504
 AO  804 D4 GA   20   RE=     0.08134
 AO  883 D1 GA   22   RE=    -0.06775
 AO  965 D1 GA   24   RE=    -0.06955
 AO 1502 D5 GA   37   RE=     0.07810
 AO 1543 D5 GA   38   RE=     0.07927
 AO 1584 D5 GA   39   RE=    -0.07824
 AO 1625 D5 GA   40   RE=    -0.07893
 AO 1662 D1 GA   41   RE=     0.26265
 AO 1663 D2 GA   41   RE=    -0.24547
 AO 1665 D4 GA   41   RE=     0.16774
 AO 1672 D1 GA   41   RE=     0.05081
 AO 1703 D1 GA   42   RE=     0.15352
 AO 1704 D2 GA   42   RE=    -0.09700
 AO 1706 D4 GA   42   RE=     0.06905
 AO 1744 D1 GA   43   RE=    -0.23896
 AO 1745 D2 GA   43   RE=     0.17392
 AO 1747 D4 GA   43   RE=    -0.12603
 AO 1785 D1 GA   44   RE=    -0.16657
 AO 1786 D2 GA   44   RE=     0.17790
 AO 1788 D4 GA   44   RE=    -0.08359
 AO 1994 D5 GA   49   RE=     0.16891
 AO 2035 D5 GA   50   RE=     0.17369
 AO 2076 D5 GA   51   RE=    -0.16848
 AO 2117 D5 GA   52   RE=    -0.17361
    BAND  993    E(A.U.)=      -0.737812
 AO   26 D5 GA    1   RE=    -0.17716
 AO  352 D3 GA    9   RE=    -0.06396
 AO  394 D4 GA   10   RE=    -0.05790
 AO  434 D3 GA   11   RE=    -0.06413
 AO  476 D4 GA   12   RE=     0.05779
 AO  515 D2 GA   13   RE=    -0.05890
 AO  555 D1 GA   14   RE=     0.06009
 AO  597 D2 GA   15   RE=     0.05900
 AO  637 D1 GA   16   RE=    -0.06004
 AO  846 D5 GA   21   RE=    -0.10609
 AO  928 D5 GA   23   RE=     0.09942
 AO 1007 D2 GA   25   RE=     0.13323
 AO 1009 D4 GA   25   RE=    -0.09990
 AO 1047 D1 GA   26   RE=    -0.16330
 AO 1050 D4 GA   26   RE=     0.08309
 AO 1089 D2 GA   27   RE=    -0.13310
 AO 1091 D4 GA   27   RE=     0.09990
 AO 1129 D1 GA   28   RE=     0.16349
 AO 1132 D4 GA   28   RE=    -0.08313
 AO 1705 D3 GA   42   RE=    -0.07453
 AO 1707 D5 GA   42   RE=    -0.21367
 AO 1787 D3 GA   44   RE=     0.09550
 AO 1789 D5 GA   44   RE=     0.22457
 AO 1990 D1 GA   49   RE=    -0.36073
 AO 1991 D2 GA   49   RE=    -0.06286
 AO 1993 D4 GA   49   RE=    -0.21816
 AO 2000 D1 GA   49   RE=    -0.06989
 AO 2032 D2 GA   50   RE=    -0.07036
 AO 2072 D1 GA   51   RE=     0.36057
 AO 2073 D2 GA   51   RE=     0.06300
 AO 2075 D4 GA   51   RE=     0.21795
 AO 2082 D1 GA   51   RE=     0.06986
 AO 2114 D2 GA   52   RE=     0.07001
 AO 2155 D2 GA   53   RE=     0.05128
 AO 2157 D4 GA   53   RE=     0.15926
 AO 2237 D2 GA   55   RE=    -0.05121
 AO 2239 D4 GA   55   RE=    -0.15912
 AO 2361 D3 GA   58   RE=    -0.05770
 AO 2363 D5 GA   58   RE=    -0.06092
    BAND  994    E(A.U.)=      -0.737748
 AO  352 D3 GA    9   RE=     0.52823
 AO  354 D5 GA    9   RE=    -0.14270
 AO  362 D3 GA    9   RE=     0.10424
 AO  367 D3 GA    9   RE=     0.05613
 AO  434 D3 GA   11   RE=     0.52829
 AO  436 D5 GA   11   RE=    -0.14276
 AO  444 D3 GA   11   RE=     0.10426
 AO  449 D3 GA   11   RE=     0.05614
 AO 1049 D3 GA   26   RE=     0.07755
 AO 1131 D3 GA   28   RE=     0.07754
 AO 1666 D5 GA   41   RE=     0.29859
 AO 1676 D5 GA   41   RE=     0.05809
 AO 1705 D3 GA   42   RE=    -0.08844
 AO 1707 D5 GA   42   RE=    -0.07720
 AO 1748 D5 GA   43   RE=     0.22664
 AO 1787 D3 GA   44   RE=    -0.07278
 AO 1990 D1 GA   49   RE=    -0.06279
 AO 2031 D1 GA   50   RE=     0.05840
 AO 2035 D5 GA   50   RE=    -0.07675
 AO 2072 D1 GA   51   RE=     0.06276
 AO 2113 D1 GA   52   RE=    -0.05835
 AO 2117 D5 GA   52   RE=    -0.07673
    BAND  995    E(A.U.)=      -0.737543
 AO   22 D1 GA    1   RE=     0.11183
 AO   23 D2 GA    1   RE=     0.07752
 AO   64 D2 GA    2   RE=     0.08835
 AO  145 D1 GA    4   RE=    -0.08300
 AO  146 D2 GA    4   RE=     0.28336
 AO  148 D4 GA    4   RE=    -0.08994
 AO  156 D2 GA    4   RE=     0.05613
 AO  186 D1 GA    5   RE=     0.08670
 AO  187 D2 GA    5   RE=    -0.07734
 AO  227 D1 GA    6   RE=    -0.08491
 AO  268 D1 GA    7   RE=     0.09749
 AO  269 D2 GA    7   RE=    -0.08338
 AO  309 D1 GA    8   RE=    -0.07053
 AO  351 D2 GA    9   RE=     0.05044
 AO  391 D1 GA   10   RE=    -0.10224
 AO  392 D2 GA   10   RE=    -0.09296
 AO  433 D2 GA   11   RE=     0.05038
 AO  473 D1 GA   12   RE=    -0.10216
 AO  474 D2 GA   12   RE=    -0.09299
 AO  556 D2 GA   14   RE=     0.07774
 AO  638 D2 GA   16   RE=     0.07766
 AO  679 D2 GA   17   RE=    -0.10203
 AO  720 D2 GA   18   RE=     0.11644
 AO  761 D2 GA   19   RE=    -0.14455
 AO  763 D4 GA   19   RE=     0.05090
 AO  802 D2 GA   20   RE=     0.14511
 AO  804 D4 GA   20   RE=    -0.05452
 AO  842 D1 GA   21   RE=     0.12171
 AO  843 D2 GA   21   RE=    -0.06770
 AO  845 D4 GA   21   RE=     0.05546
 AO  884 D2 GA   22   RE=     0.05218
 AO  924 D1 GA   23   RE=     0.10185
 AO  927 D4 GA   23   RE=     0.05728
 AO 1006 D1 GA   25   RE=    -0.05240
 AO 1007 D2 GA   25   RE=    -0.07284
 AO 1047 D1 GA   26   RE=    -0.05416
 AO 1048 D2 GA   26   RE=    -0.15409
 AO 1088 D1 GA   27   RE=    -0.05212
 AO 1089 D2 GA   27   RE=    -0.07353
 AO 1129 D1 GA   28   RE=    -0.05338
 AO 1130 D2 GA   28   RE=    -0.15399
 AO 1170 D1 GA   29   RE=     0.11444
 AO 1171 D2 GA   29   RE=    -0.05867
 AO 1211 D1 GA   30   RE=    -0.11192
 AO 1252 D1 GA   31   RE=     0.11443
 AO 1253 D2 GA   31   RE=    -0.05867
 AO 1293 D1 GA   32   RE=    -0.11191
 AO 1376 D2 GA   34   RE=    -0.07003
 AO 1458 D2 GA   36   RE=    -0.07000
 AO 1703 D1 GA   42   RE=     0.06645
 AO 1704 D2 GA   42   RE=    -0.12065
 AO 1706 D4 GA   42   RE=     0.09035
 AO 1744 D1 GA   43   RE=    -0.10191
 AO 1745 D2 GA   43   RE=     0.10432
 AO 1747 D4 GA   43   RE=    -0.06605
 AO 1785 D1 GA   44   RE=     0.07755
 AO 1786 D2 GA   44   RE=    -0.20288
 AO 1788 D4 GA   44   RE=     0.12903
 AO 1870 D4 GA   46   RE=    -0.05765
 AO 1952 D4 GA   48   RE=    -0.06330
 AO 1993 D4 GA   49   RE=     0.08109
 AO 2032 D2 GA   50   RE=     0.09890
 AO 2034 D4 GA   50   RE=    -0.06659
 AO 2075 D4 GA   51   RE=     0.08131
 AO 2114 D2 GA   52   RE=     0.09913
 AO 2116 D4 GA   52   RE=    -0.06639
 AO 2321 D4 GA   57   RE=    -0.05258
 AO 2360 D2 GA   58   RE=    -0.11918
 AO 2400 D1 GA   59   RE=    -0.05429
 AO 2441 D1 GA   60   RE=     0.06892
 AO 3798  S O   130   RE=     0.05098
    BAND  996    E(A.U.)=      -0.737340
 AO   24 D3 GA    1   RE=     0.11122
 AO   26 D5 GA    1   RE=     0.40100
 AO   36 D5 GA    1   RE=     0.07883
 AO  350 D1 GA    9   RE=    -0.05179
 AO  432 D1 GA   11   RE=     0.05198
 AO  515 D2 GA   13   RE=     0.12093
 AO  555 D1 GA   14   RE=    -0.14151
 AO  556 D2 GA   14   RE=    -0.07462
 AO  597 D2 GA   15   RE=    -0.12138
 AO  637 D1 GA   16   RE=     0.14088
 AO  638 D2 GA   16   RE=     0.07405
 AO 1007 D2 GA   25   RE=     0.14009
 AO 1009 D4 GA   25   RE=    -0.09427
 AO 1047 D1 GA   26   RE=    -0.12396
 AO 1048 D2 GA   26   RE=    -0.07731
 AO 1089 D2 GA   27   RE=    -0.13988
 AO 1091 D4 GA   27   RE=     0.09412
 AO 1129 D1 GA   28   RE=     0.12412
 AO 1130 D2 GA   28   RE=     0.07780
 AO 1375 D1 GA   34   RE=     0.05610
 AO 1378 D4 GA   34   RE=    -0.06628
 AO 1457 D1 GA   36   RE=    -0.05558
 AO 1460 D4 GA   36   RE=     0.06653
 AO 1869 D3 GA   46   RE=    -0.07056
 AO 1871 D5 GA   46   RE=     0.06948
 AO 1951 D3 GA   48   RE=     0.07026
 AO 1953 D5 GA   48   RE=    -0.07878
 AO 1990 D1 GA   49   RE=    -0.08787
 AO 1993 D4 GA   49   RE=    -0.05751
 AO 2072 D1 GA   51   RE=     0.08777
 AO 2075 D4 GA   51   RE=     0.05747
 AO 2155 D2 GA   53   RE=    -0.12136
 AO 2157 D4 GA   53   RE=    -0.34991
 AO 2167 D4 GA   53   RE=    -0.06446
 AO 2237 D2 GA   55   RE=     0.12136
 AO 2239 D4 GA   55   RE=     0.35003
 AO 2249 D4 GA   55   RE=     0.06446
 AO 2627  S O    65   RE=     0.06644
 AO 2628  S O    65   RE=     0.09758
 AO 2663  S O    67   RE=    -0.06644
 AO 2664  S O    67   RE=    -0.09748
    BAND  997    E(A.U.)=      -0.737277
 AO  352 D3 GA    9   RE=    -0.24754
 AO  354 D5 GA    9   RE=     0.06958
 AO  434 D3 GA   11   RE=    -0.24733
 AO  436 D5 GA   11   RE=     0.06965
 AO 1010 D5 GA   25   RE=    -0.05589
 AO 1092 D5 GA   27   RE=    -0.05594
 AO 1664 D3 GA   41   RE=     0.18891
 AO 1666 D5 GA   41   RE=     0.50157
 AO 1676 D5 GA   41   RE=     0.09678
 AO 1681 D5 GA   41   RE=     0.05598
 AO 1707 D5 GA   42   RE=     0.05240
 AO 1746 D3 GA   43   RE=     0.17222
 AO 1748 D5 GA   43   RE=     0.42716
 AO 1758 D5 GA   43   RE=     0.08254
 AO 1789 D5 GA   44   RE=     0.08287
 AO 2033 D3 GA   50   RE=    -0.11507
 AO 2035 D5 GA   50   RE=    -0.25252
 AO 2115 D3 GA   52   RE=    -0.11509
 AO 2117 D5 GA   52   RE=    -0.25258
    BAND  998    E(A.U.)=      -0.737134
 AO  352 D3 GA    9   RE=    -0.13924
 AO  393 D3 GA   10   RE=     0.05988
 AO  434 D3 GA   11   RE=     0.13992
 AO  475 D3 GA   12   RE=    -0.05984
 AO  678 D1 GA   17   RE=     0.09241
 AO  679 D2 GA   17   RE=     0.12974
 AO  720 D2 GA   18   RE=    -0.16644
 AO  722 D4 GA   18   RE=     0.10122
 AO  760 D1 GA   19   RE=    -0.09762
 AO  761 D2 GA   19   RE=    -0.07436
 AO  802 D2 GA   20   RE=     0.13503
 AO  804 D4 GA   20   RE=    -0.09500
 AO 1662 D1 GA   41   RE=     0.26637
 AO 1663 D2 GA   41   RE=    -0.18400
 AO 1665 D4 GA   41   RE=     0.18912
 AO 1672 D1 GA   41   RE=     0.05160
 AO 1703 D1 GA   42   RE=    -0.24978
 AO 1704 D2 GA   42   RE=     0.35147
 AO 1706 D4 GA   42   RE=    -0.19512
 AO 1714 D2 GA   42   RE=     0.06892
 AO 1744 D1 GA   43   RE=    -0.22404
 AO 1745 D2 GA   43   RE=     0.12241
 AO 1747 D4 GA   43   RE=    -0.16270
 AO 1785 D1 GA   44   RE=     0.20078
 AO 1786 D2 GA   44   RE=    -0.31208
 AO 1788 D4 GA   44   RE=     0.16843
 AO 1796 D2 GA   44   RE=    -0.06121
 AO 1994 D5 GA   49   RE=    -0.06307
 AO 2076 D5 GA   51   RE=     0.06282
    BAND  999    E(A.U.)=      -0.736770
 AO  352 D3 GA    9   RE=     0.08218
 AO  434 D3 GA   11   RE=     0.08220
 AO 1051 D5 GA   26   RE=    -0.07992
 AO 1133 D5 GA   28   RE=    -0.08002
 AO 1705 D3 GA   42   RE=     0.15745
 AO 1707 D5 GA   42   RE=     0.54057
 AO 1717 D5 GA   42   RE=     0.10456
 AO 1722 D5 GA   42   RE=     0.05929
 AO 1787 D3 GA   44   RE=     0.15368
 AO 1789 D5 GA   44   RE=     0.53761
 AO 1799 D5 GA   44   RE=     0.10399
 AO 1804 D5 GA   44   RE=     0.05898
 AO 1992 D3 GA   49   RE=    -0.12060
 AO 1994 D5 GA   49   RE=    -0.25232
 AO 2074 D3 GA   51   RE=    -0.12051
 AO 2076 D5 GA   51   RE=    -0.25216
    BAND 1000    E(A.U.)=      -0.736757
 AO   63 D1 GA    2   RE=     0.06459
 AO  145 D1 GA    4   RE=     0.09680
 AO  186 D1 GA    5   RE=     0.06736
 AO  187 D2 GA    5   RE=     0.11723
 AO  268 D1 GA    7   RE=     0.06721
 AO  269 D2 GA    7   RE=     0.11825
 AO  351 D2 GA    9   RE=    -0.05692
 AO  433 D2 GA   11   RE=    -0.05687
 AO  514 D1 GA   13   RE=    -0.29714
 AO  515 D2 GA   13   RE=    -0.07098
 AO  524 D1 GA   13   RE=    -0.05881
 AO  555 D1 GA   14   RE=    -0.07207
 AO  556 D2 GA   14   RE=    -0.09284
 AO  596 D1 GA   15   RE=    -0.29721
 AO  597 D2 GA   15   RE=    -0.07074
 AO  606 D1 GA   15   RE=    -0.05882
 AO  637 D1 GA   16   RE=    -0.07243
 AO  638 D2 GA   16   RE=    -0.09304
 AO  679 D2 GA   17   RE=     0.09502
 AO  719 D1 GA   18   RE=     0.07007
 AO  761 D2 GA   19   RE=     0.10855
 AO  801 D1 GA   20   RE=     0.06212
 AO  843 D2 GA   21   RE=    -0.07945
 AO  883 D1 GA   22   RE=    -0.11096
 AO  925 D2 GA   23   RE=    -0.07719
 AO  965 D1 GA   24   RE=    -0.10801
 AO 1006 D1 GA   25   RE=    -0.06315
 AO 1088 D1 GA   27   RE=    -0.06321
 AO 1170 D1 GA   29   RE=     0.26564
 AO 1180 D1 GA   29   RE=     0.05263
 AO 1212 D2 GA   30   RE=     0.06976
 AO 1252 D1 GA   31   RE=     0.26560
 AO 1262 D1 GA   31   RE=     0.05262
 AO 1294 D2 GA   32   RE=     0.06979
 AO 1375 D1 GA   34   RE=     0.05689
 AO 1457 D1 GA   36   RE=     0.05705
 AO 1498 D1 GA   37   RE=    -0.05394
 AO 1580 D1 GA   39   RE=    -0.05400
 AO 1663 D2 GA   41   RE=    -0.07439
 AO 1704 D2 GA   42   RE=    -0.05653
 AO 1745 D2 GA   43   RE=    -0.07994
 AO 1826 D1 GA   45   RE=     0.09463
 AO 1827 D2 GA   45   RE=     0.08164
 AO 1829 D4 GA   45   RE=     0.08483
 AO 1870 D4 GA   46   RE=     0.05264
 AO 1908 D1 GA   47   RE=     0.09275
 AO 1909 D2 GA   47   RE=     0.08190
 AO 1911 D4 GA   47   RE=     0.08532
 AO 1952 D4 GA   48   RE=     0.05558
 AO 1991 D2 GA   49   RE=     0.05906
 AO 2073 D2 GA   51   RE=     0.05887
 AO 2157 D4 GA   53   RE=     0.07861
 AO 2239 D4 GA   55   RE=     0.07766
 AO 2321 D4 GA   57   RE=    -0.05653
 AO 2400 D1 GA   59   RE=    -0.09198
 AO 2401 D2 GA   59   RE=     0.05222
 AO 2482 D1 GA   61   RE=    -0.14497
 AO 2483 D2 GA   61   RE=    -0.11452
 AO 2485 D4 GA   61   RE=    -0.05279
 AO 2564 D1 GA   63   RE=    -0.14503
 AO 2565 D2 GA   63   RE=    -0.11372
 AO 2567 D4 GA   63   RE=    -0.05241
 AO 3420  S O   109   RE=     0.06849
 AO 3456  S O   111   RE=     0.06847
 AO 3708  S O   125   RE=    -0.05608
 AO 3744  S O   127   RE=    -0.05608
    BAND 1001    E(A.U.)=      -0.736545
 AO  678 D1 GA   17   RE=     0.12620
 AO  679 D2 GA   17   RE=    -0.14941
 AO  681 D4 GA   17   RE=     0.11371
 AO  719 D1 GA   18   RE=     0.17631
 AO  722 D4 GA   18   RE=     0.05273
 AO  760 D1 GA   19   RE=    -0.12389
 AO  761 D2 GA   19   RE=     0.15745
 AO  763 D4 GA   19   RE=    -0.11539
 AO  801 D1 GA   20   RE=    -0.18173
 AO 1010 D5 GA   25   RE=    -0.12552
 AO 1051 D5 GA   26   RE=    -0.07326
 AO 1092 D5 GA   27   RE=     0.12556
 AO 1133 D5 GA   28   RE=     0.07318
 AO 1662 D1 GA   41   RE=     0.28837
 AO 1663 D2 GA   41   RE=     0.18163
 AO 1665 D4 GA   41   RE=     0.25428
 AO 1672 D1 GA   41   RE=     0.05597
 AO 1703 D1 GA   42   RE=     0.23325
 AO 1706 D4 GA   42   RE=     0.22292
 AO 1744 D1 GA   43   RE=    -0.27093
 AO 1745 D2 GA   43   RE=    -0.17764
 AO 1747 D4 GA   43   RE=    -0.24689
 AO 1754 D1 GA   43   RE=    -0.05252
 AO 1785 D1 GA   44   RE=    -0.23242
 AO 1788 D4 GA   44   RE=    -0.21978
 AO 4068  S O   145   RE=    -0.05352
 AO 4104  S O   147   RE=     0.05568
    BAND 1002    E(A.U.)=      -0.736122
 AO   63 D1 GA    2   RE=     0.09979
 AO  145 D1 GA    4   RE=     0.11514
 AO  228 D2 GA    6   RE=    -0.06389
 AO  310 D2 GA    8   RE=    -0.06541
 AO  350 D1 GA    9   RE=     0.05185
 AO  351 D2 GA    9   RE=    -0.09788
 AO  392 D2 GA   10   RE=     0.06609
 AO  432 D1 GA   11   RE=     0.05373
 AO  433 D2 GA   11   RE=    -0.09777
 AO  474 D2 GA   12   RE=     0.06479
 AO  515 D2 GA   13   RE=     0.07755
 AO  555 D1 GA   14   RE=     0.27409
 AO  565 D1 GA   14   RE=     0.05413
 AO  597 D2 GA   15   RE=     0.07752
 AO  637 D1 GA   16   RE=     0.27411
 AO  647 D1 GA   16   RE=     0.05413
 AO  720 D2 GA   18   RE=    -0.11055
 AO  802 D2 GA   20   RE=    -0.09415
 AO  883 D1 GA   22   RE=    -0.08814
 AO  884 D2 GA   22   RE=     0.07259
 AO  965 D1 GA   24   RE=    -0.08608
 AO  966 D2 GA   24   RE=     0.08254
 AO 1007 D2 GA   25   RE=    -0.12100
 AO 1048 D2 GA   26   RE=    -0.05488
 AO 1089 D2 GA   27   RE=    -0.12039
 AO 1130 D2 GA   28   RE=    -0.05521
 AO 1211 D1 GA   30   RE=    -0.26176
 AO 1212 D2 GA   30   RE=    -0.07329
 AO 1221 D1 GA   30   RE=    -0.05179
 AO 1293 D1 GA   32   RE=    -0.26173
 AO 1294 D2 GA   32   RE=    -0.07326
 AO 1303 D1 GA   32   RE=    -0.05179
 AO 1335 D2 GA   33   RE=     0.05650
 AO 1337 D4 GA   33   RE=     0.05709
 AO 1375 D1 GA   34   RE=     0.08621
 AO 1417 D2 GA   35   RE=     0.05645
 AO 1419 D4 GA   35   RE=     0.05716
 AO 1457 D1 GA   36   RE=     0.08597
 AO 1663 D2 GA   41   RE=    -0.06698
 AO 1665 D4 GA   41   RE=     0.05454
 AO 1704 D2 GA   42   RE=     0.10838
 AO 1747 D4 GA   43   RE=     0.06409
 AO 1786 D2 GA   44   RE=     0.10232
 AO 1867 D1 GA   46   RE=    -0.09728
 AO 1868 D2 GA   46   RE=    -0.09062
 AO 1870 D4 GA   46   RE=    -0.07337
 AO 1949 D1 GA   48   RE=    -0.10964
 AO 1950 D2 GA   48   RE=    -0.10281
 AO 1952 D4 GA   48   RE=    -0.08045
 AO 2155 D2 GA   53   RE=    -0.05430
 AO 2157 D4 GA   53   RE=    -0.07144
 AO 2237 D2 GA   55   RE=    -0.05416
 AO 2239 D4 GA   55   RE=    -0.07138
 AO 2321 D4 GA   57   RE=    -0.05031
 AO 2400 D1 GA   59   RE=    -0.14129
 AO 2523 D1 GA   62   RE=     0.12897
 AO 2524 D2 GA   62   RE=     0.08613
 AO 2526 D4 GA   62   RE=     0.07591
 AO 2605 D1 GA   64   RE=     0.12892
 AO 2606 D2 GA   64   RE=     0.08567
 AO 2608 D4 GA   64   RE=     0.07575
 AO 3438  S O   110   RE=    -0.06569
 AO 3474  S O   112   RE=    -0.06571
 AO 3726  S O   126   RE=     0.05984
 AO 3762  S O   128   RE=     0.05983
    BAND 1003    E(A.U.)=      -0.736070
 AO  231 D5 GA    6   RE=    -0.14047
 AO  313 D5 GA    8   RE=     0.14309
 AO  350 D1 GA    9   RE=    -0.29462
 AO  353 D4 GA    9   RE=    -0.18180
 AO  360 D1 GA    9   RE=    -0.05753
 AO  391 D1 GA   10   RE=    -0.17273
 AO  392 D2 GA   10   RE=     0.20929
 AO  394 D4 GA   10   RE=    -0.16006
 AO  432 D1 GA   11   RE=     0.29432
 AO  435 D4 GA   11   RE=     0.18176
 AO  442 D1 GA   11   RE=     0.05747
 AO  473 D1 GA   12   RE=     0.17280
 AO  474 D2 GA   12   RE=    -0.20944
 AO  476 D4 GA   12   RE=     0.15998
 AO  846 D5 GA   21   RE=     0.06195
 AO  928 D5 GA   23   RE=    -0.05843
 AO 1007 D2 GA   25   RE=    -0.09973
 AO 1047 D1 GA   26   RE=     0.08389
 AO 1089 D2 GA   27   RE=     0.10032
 AO 1129 D1 GA   28   RE=    -0.08396
 AO 1664 D3 GA   41   RE=     0.08162
 AO 1666 D5 GA   41   RE=     0.21257
 AO 1707 D5 GA   42   RE=     0.14973
 AO 1748 D5 GA   43   RE=    -0.11702
 AO 1789 D5 GA   44   RE=    -0.12896
 AO 2031 D1 GA   50   RE=    -0.08895
 AO 2032 D2 GA   50   RE=    -0.15903
 AO 2034 D4 GA   50   RE=    -0.14063
 AO 2113 D1 GA   52   RE=     0.08906
 AO 2114 D2 GA   52   RE=     0.15923
 AO 2116 D4 GA   52   RE=     0.14043
 AO 2363 D5 GA   58   RE=     0.06279
 AO 2404 D5 GA   59   RE=     0.08957
 AO 2445 D5 GA   60   RE=    -0.05393
 AO 3942  S O   138   RE=     0.07580
 AO 3978  S O   140   RE=    -0.07583
    BAND 1004    E(A.U.)=      -0.735859
 AO  227 D1 GA    6   RE=    -0.05906
 AO  309 D1 GA    8   RE=    -0.05493
 AO  310 D2 GA    8   RE=     0.05181
 AO  351 D2 GA    9   RE=     0.05924
 AO  392 D2 GA   10   RE=     0.10977
 AO  433 D2 GA   11   RE=     0.05909
 AO  474 D2 GA   12   RE=     0.10963
 AO  514 D1 GA   13   RE=    -0.05323
 AO  596 D1 GA   15   RE=    -0.05322
 AO  678 D1 GA   17   RE=    -0.11591
 AO  679 D2 GA   17   RE=    -0.27961
 AO  681 D4 GA   17   RE=     0.08573
 AO  689 D2 GA   17   RE=    -0.05500
 AO  720 D2 GA   18   RE=     0.10393
 AO  760 D1 GA   19   RE=     0.05048
 AO  801 D1 GA   20   RE=    -0.09444
 AO  802 D2 GA   20   RE=    -0.26408
 AO  804 D4 GA   20   RE=     0.11393
 AO  812 D2 GA   20   RE=    -0.05188
 AO  842 D1 GA   21   RE=     0.05205
 AO  883 D1 GA   22   RE=    -0.05941
 AO  965 D1 GA   24   RE=    -0.06230
 AO 1006 D1 GA   25   RE=     0.08769
 AO 1007 D2 GA   25   RE=    -0.05323
 AO 1010 D5 GA   25   RE=    -0.05684
 AO 1051 D5 GA   26   RE=     0.09785
 AO 1088 D1 GA   27   RE=     0.08743
 AO 1089 D2 GA   27   RE=    -0.05344
 AO 1092 D5 GA   27   RE=     0.05683
 AO 1133 D5 GA   28   RE=    -0.09775
 AO 1170 D1 GA   29   RE=     0.09022
 AO 1252 D1 GA   31   RE=     0.09022
 AO 1662 D1 GA   41   RE=     0.13179
 AO 1663 D2 GA   41   RE=     0.18603
 AO 1665 D4 GA   41   RE=     0.12301
 AO 1703 D1 GA   42   RE=    -0.25853
 AO 1704 D2 GA   42   RE=    -0.09899
 AO 1706 D4 GA   42   RE=    -0.25622
 AO 1713 D1 GA   42   RE=    -0.05031
 AO 1744 D1 GA   43   RE=    -0.13550
 AO 1745 D2 GA   43   RE=    -0.06246
 AO 1747 D4 GA   43   RE=    -0.10400
 AO 1785 D1 GA   44   RE=     0.23947
 AO 1786 D2 GA   44   RE=     0.20802
 AO 1788 D4 GA   44   RE=     0.15743
 AO 2321 D4 GA   57   RE=     0.05064
 AO 2400 D1 GA   59   RE=     0.08976
 AO 2482 D1 GA   61   RE=    -0.05060
 AO 2564 D1 GA   63   RE=    -0.05123
 AO 3492  S O   113   RE=     0.05232
 AO 4068  S O   145   RE=    -0.05773
 AO 4122  S O   148   RE=    -0.05888
    BAND 1005    E(A.U.)=      -0.735798
 AO  227 D1 GA    6   RE=     0.07657
 AO  228 D2 GA    6   RE=    -0.07448
 AO  309 D1 GA    8   RE=     0.08253
 AO  310 D2 GA    8   RE=    -0.06602
 AO  312 D4 GA    8   RE=     0.06010
 AO  351 D2 GA    9   RE=    -0.09249
 AO  392 D2 GA   10   RE=    -0.15970
 AO  394 D4 GA   10   RE=     0.07066
 AO  433 D2 GA   11   RE=    -0.09232
 AO  474 D2 GA   12   RE=    -0.16033
 AO  476 D4 GA   12   RE=     0.07104
 AO  514 D1 GA   13   RE=     0.07012
 AO  555 D1 GA   14   RE=     0.09515
 AO  558 D4 GA   14   RE=     0.05247
 AO  596 D1 GA   15   RE=     0.07011
 AO  637 D1 GA   16   RE=     0.09513
 AO  640 D4 GA   16   RE=     0.05244
 AO  679 D2 GA   17   RE=     0.05973
 AO  719 D1 GA   18   RE=     0.09652
 AO  720 D2 GA   18   RE=     0.24835
 AO  722 D4 GA   18   RE=    -0.12192
 AO  760 D1 GA   19   RE=     0.11681
 AO  761 D2 GA   19   RE=     0.27948
 AO  763 D4 GA   19   RE=    -0.08419
 AO  771 D2 GA   19   RE=     0.05518
 AO  801 D1 GA   20   RE=     0.06116
 AO  842 D1 GA   21   RE=    -0.06733
 AO  883 D1 GA   22   RE=     0.07536
 AO  924 D1 GA   23   RE=    -0.06147
 AO  965 D1 GA   24   RE=     0.07688
 AO  966 D2 GA   24   RE=    -0.05591
 AO 1006 D1 GA   25   RE=    -0.12743
 AO 1007 D2 GA   25   RE=     0.07725
 AO 1048 D2 GA   26   RE=    -0.06174
 AO 1051 D5 GA   26   RE=     0.07525
 AO 1088 D1 GA   27   RE=    -0.12705
 AO 1089 D2 GA   27   RE=     0.07823
 AO 1130 D2 GA   28   RE=    -0.06259
 AO 1133 D5 GA   28   RE=    -0.07539
 AO 1170 D1 GA   29   RE=    -0.12675
 AO 1252 D1 GA   31   RE=    -0.12675
 AO 1662 D1 GA   41   RE=     0.09879
 AO 1703 D1 GA   42   RE=    -0.16011
 AO 1704 D2 GA   42   RE=    -0.18935
 AO 1706 D4 GA   42   RE=    -0.07599
 AO 1744 D1 GA   43   RE=    -0.05691
 AO 1745 D2 GA   43   RE=    -0.16148
 AO 1747 D4 GA   43   RE=    -0.07008
 AO 1785 D1 GA   44   RE=     0.17629
 AO 1786 D2 GA   44   RE=     0.05330
 AO 1788 D4 GA   44   RE=     0.22178
 AO 1867 D1 GA   46   RE=    -0.06349
 AO 1949 D1 GA   48   RE=    -0.06617
 AO 1993 D4 GA   49   RE=    -0.05095
 AO 2075 D4 GA   51   RE=    -0.05082
 AO 2400 D1 GA   59   RE=    -0.09108
 AO 2482 D1 GA   61   RE=     0.07344
 AO 2523 D1 GA   62   RE=     0.06210
 AO 2564 D1 GA   63   RE=     0.07251
 AO 2605 D1 GA   64   RE=     0.06305
 AO 3528  S O   115   RE=    -0.05366
 AO 4086  S O   146   RE=     0.05208
 AO 4104  S O   147   RE=     0.05663
    BAND 1006    E(A.U.)=      -0.735765
 AO  846 D5 GA   21   RE=    -0.06586
 AO  885 D3 GA   22   RE=     0.11534
 AO  887 D5 GA   22   RE=     0.26181
 AO  897 D5 GA   22   RE=     0.05189
 AO  928 D5 GA   23   RE=     0.06200
 AO  967 D3 GA   24   RE=    -0.11844
 AO  969 D5 GA   24   RE=    -0.25614
 AO  979 D5 GA   24   RE=    -0.05067
 AO 1006 D1 GA   25   RE=     0.17299
 AO 1007 D2 GA   25   RE=     0.17192
 AO 1008 D3 GA   25   RE=    -0.05627
 AO 1048 D2 GA   26   RE=    -0.24411
 AO 1049 D3 GA   26   RE=    -0.11020
 AO 1050 D4 GA   26   RE=     0.11524
 AO 1088 D1 GA   27   RE=    -0.17339
 AO 1089 D2 GA   27   RE=    -0.17175
 AO 1090 D3 GA   27   RE=    -0.05636
 AO 1130 D2 GA   28   RE=     0.24403
 AO 1131 D3 GA   28   RE=    -0.11020
 AO 1132 D4 GA   28   RE=    -0.11538
 AO 1375 D1 GA   34   RE=    -0.15847
 AO 1376 D2 GA   34   RE=    -0.08367
 AO 1377 D3 GA   34   RE=     0.09757
 AO 1378 D4 GA   34   RE=     0.15233
 AO 1379 D5 GA   34   RE=     0.05099
 AO 1457 D1 GA   36   RE=     0.15843
 AO 1458 D2 GA   36   RE=     0.08368
 AO 1459 D3 GA   36   RE=     0.09760
 AO 1460 D4 GA   36   RE=    -0.15226
 AO 1461 D5 GA   36   RE=     0.05117
 AO 2320 D3 GA   57   RE=     0.16109
 AO 2322 D5 GA   57   RE=    -0.09036
 AO 2402 D3 GA   59   RE=     0.27080
 AO 2404 D5 GA   59   RE=     0.22033
 AO 2412 D3 GA   59   RE=     0.05187
 AO 3006  S O    86   RE=     0.06291
 AO 3042  S O    88   RE=    -0.06291
 AO 4230  S O   154   RE=    -0.05122
 AO 4266  S O   156   RE=     0.05120
    BAND 1007    E(A.U.)=      -0.735004
 AO  186 D1 GA    5   RE=     0.07788
 AO  227 D1 GA    6   RE=    -0.11117
 AO  228 D2 GA    6   RE=     0.05097
 AO  268 D1 GA    7   RE=     0.07530
 AO  309 D1 GA    8   RE=    -0.11405
 AO  310 D2 GA    8   RE=     0.05200
 AO  392 D2 GA   10   RE=     0.05208
 AO  474 D2 GA   12   RE=     0.05211
 AO  514 D1 GA   13   RE=     0.09061
 AO  515 D2 GA   13   RE=    -0.09251
 AO  517 D4 GA   13   RE=     0.05932
 AO  556 D2 GA   14   RE=    -0.06907
 AO  558 D4 GA   14   RE=     0.05687
 AO  596 D1 GA   15   RE=     0.09061
 AO  597 D2 GA   15   RE=    -0.09246
 AO  599 D4 GA   15   RE=     0.05935
 AO  638 D2 GA   16   RE=    -0.06909
 AO  640 D4 GA   16   RE=     0.05686
 AO  719 D1 GA   18   RE=     0.06681
 AO  720 D2 GA   18   RE=     0.08260
 AO  801 D1 GA   20   RE=     0.05027
 AO  802 D2 GA   20   RE=     0.09770
 AO  804 D4 GA   20   RE=    -0.05404
 AO  843 D2 GA   21   RE=    -0.07965
 AO  883 D1 GA   22   RE=    -0.11134
 AO  886 D4 GA   22   RE=    -0.05414
 AO  925 D2 GA   23   RE=    -0.07175
 AO  965 D1 GA   24   RE=    -0.11540
 AO 1006 D1 GA   25   RE=     0.11631
 AO 1048 D2 GA   26   RE=     0.18140
 AO 1050 D4 GA   26   RE=    -0.05096
 AO 1088 D1 GA   27   RE=     0.11657
 AO 1130 D2 GA   28   RE=     0.18103
 AO 1132 D4 GA   28   RE=    -0.05085
 AO 1170 D1 GA   29   RE=    -0.08885
 AO 1211 D1 GA   30   RE=    -0.19897
 AO 1212 D2 GA   30   RE=     0.05848
 AO 1214 D4 GA   30   RE=    -0.09772
 AO 1252 D1 GA   31   RE=    -0.08887
 AO 1293 D1 GA   32   RE=    -0.19896
 AO 1294 D2 GA   32   RE=     0.05850
 AO 1296 D4 GA   32   RE=    -0.09777
 AO 1337 D4 GA   33   RE=    -0.05297
 AO 1376 D2 GA   34   RE=     0.09342
 AO 1379 D5 GA   34   RE=    -0.06429
 AO 1419 D4 GA   35   RE=    -0.05299
 AO 1458 D2 GA   36   RE=     0.09321
 AO 1461 D5 GA   36   RE=     0.06422
 AO 1662 D1 GA   41   RE=     0.05225
 AO 1744 D1 GA   43   RE=     0.05504
 AO 1786 D2 GA   44   RE=    -0.06251
 AO 1826 D1 GA   45   RE=    -0.07552
 AO 1827 D2 GA   45   RE=     0.05496
 AO 1829 D4 GA   45   RE=     0.07131
 AO 1867 D1 GA   46   RE=    -0.10327
 AO 1870 D4 GA   46   RE=     0.09373
 AO 1908 D1 GA   47   RE=    -0.07562
 AO 1909 D2 GA   47   RE=     0.05378
 AO 1911 D4 GA   47   RE=     0.07175
 AO 1949 D1 GA   48   RE=    -0.10652
 AO 1952 D4 GA   48   RE=     0.09420
 AO 2032 D2 GA   50   RE=    -0.05574
 AO 2034 D4 GA   50   RE=    -0.07722
 AO 2114 D2 GA   52   RE=    -0.05573
 AO 2116 D4 GA   52   RE=    -0.07723
 AO 2157 D4 GA   53   RE=     0.09898
 AO 2239 D4 GA   55   RE=     0.09873
 AO 2321 D4 GA   57   RE=     0.08291
 AO 2400 D1 GA   59   RE=     0.21205
 AO 2401 D2 GA   59   RE=     0.13370
 AO 2482 D1 GA   61   RE=     0.07807
 AO 2483 D2 GA   61   RE=    -0.06423
 AO 2523 D1 GA   62   RE=     0.12581
 AO 2526 D4 GA   62   RE=    -0.05300
 AO 2564 D1 GA   63   RE=     0.07757
 AO 2565 D2 GA   63   RE=    -0.06326
 AO 2605 D1 GA   64   RE=     0.12488
 AO 2608 D4 GA   64   RE=    -0.05367
 AO 3150  S O    94   RE=    -0.06334
 AO 3186  S O    96   RE=    -0.06227
    BAND 1008    E(A.U.)=      -0.734578
 AO  190 D5 GA    5   RE=    -0.12685
 AO  231 D5 GA    6   RE=     0.07106
 AO  272 D5 GA    7   RE=     0.12675
 AO  313 D5 GA    8   RE=    -0.07086
 AO  351 D2 GA    9   RE=     0.35992
 AO  353 D4 GA    9   RE=    -0.21026
 AO  361 D2 GA    9   RE=     0.07066
 AO  391 D1 GA   10   RE=    -0.17456
 AO  392 D2 GA   10   RE=    -0.22647
 AO  394 D4 GA   10   RE=     0.05249
 AO  433 D2 GA   11   RE=    -0.35678
 AO  435 D4 GA   11   RE=     0.20883
 AO  443 D2 GA   11   RE=    -0.07003
 AO  473 D1 GA   12   RE=     0.17567
 AO  474 D2 GA   12   RE=     0.22640
 AO  476 D4 GA   12   RE=    -0.05247
 AO 1050 D4 GA   26   RE=    -0.07173
 AO 1132 D4 GA   28   RE=     0.07186
 AO 1707 D5 GA   42   RE=     0.15013
 AO 1789 D5 GA   44   RE=    -0.13922
 AO 1990 D1 GA   49   RE=    -0.08808
 AO 1991 D2 GA   49   RE=    -0.19455
 AO 1993 D4 GA   49   RE=    -0.09631
 AO 2032 D2 GA   50   RE=     0.10789
 AO 2072 D1 GA   51   RE=     0.08823
 AO 2073 D2 GA   51   RE=     0.19415
 AO 2075 D4 GA   51   RE=     0.09754
 AO 2114 D2 GA   52   RE=    -0.10828
 AO 3366  S O   106   RE=     0.06117
 AO 3402  S O   108   RE=    -0.06134
 AO 3924  S O   137   RE=     0.07500
 AO 3960  S O   139   RE=    -0.07452
    BAND 1009    E(A.U.)=      -0.734478
 AO   23 D2 GA    1   RE=    -0.08798
 AO   25 D4 GA    1   RE=     0.05648
 AO   63 D1 GA    2   RE=    -0.11120
 AO  145 D1 GA    4   RE=    -0.15725
 AO  187 D2 GA    5   RE=    -0.06742
 AO  189 D4 GA    5   RE=     0.07541
 AO  227 D1 GA    6   RE=     0.08647
 AO  228 D2 GA    6   RE=     0.06313
 AO  269 D2 GA    7   RE=    -0.06724
 AO  271 D4 GA    7   RE=     0.07490
 AO  309 D1 GA    8   RE=     0.08535
 AO  310 D2 GA    8   RE=     0.06409
 AO  351 D2 GA    9   RE=    -0.27094
 AO  353 D4 GA    9   RE=     0.12276
 AO  361 D2 GA    9   RE=    -0.05403
 AO  391 D1 GA   10   RE=    -0.09289
 AO  433 D2 GA   11   RE=    -0.27511
 AO  435 D4 GA   11   RE=     0.12511
 AO  443 D2 GA   11   RE=    -0.05485
 AO  473 D1 GA   12   RE=    -0.09091
 AO  555 D1 GA   14   RE=    -0.05354
 AO  556 D2 GA   14   RE=     0.09205
 AO  637 D1 GA   16   RE=    -0.05350
 AO  638 D2 GA   16   RE=     0.09207
 AO  678 D1 GA   17   RE=     0.17365
 AO  679 D2 GA   17   RE=     0.06679
 AO  681 D4 GA   17   RE=    -0.05452
 AO  719 D1 GA   18   RE=    -0.07993
 AO  720 D2 GA   18   RE=     0.06334
 AO  760 D1 GA   19   RE=     0.16923
 AO  761 D2 GA   19   RE=     0.07150
 AO  763 D4 GA   19   RE=    -0.05386
 AO  801 D1 GA   20   RE=    -0.08579
 AO  802 D2 GA   20   RE=     0.06197
 AO  842 D1 GA   21   RE=     0.07635
 AO  924 D1 GA   23   RE=     0.07066
 AO 1006 D1 GA   25   RE=     0.10114
 AO 1007 D2 GA   25   RE=    -0.10108
 AO 1047 D1 GA   26   RE=    -0.11701
 AO 1048 D2 GA   26   RE=     0.09143
 AO 1088 D1 GA   27   RE=     0.10138
 AO 1089 D2 GA   27   RE=    -0.10114
 AO 1129 D1 GA   28   RE=    -0.11722
 AO 1130 D2 GA   28   RE=     0.09164
 AO 1170 D1 GA   29   RE=     0.09427
 AO 1252 D1 GA   31   RE=     0.09432
 AO 1375 D1 GA   34   RE=    -0.05441
 AO 1457 D1 GA   36   RE=    -0.05441
 AO 1499 D2 GA   37   RE=     0.05960
 AO 1501 D4 GA   37   RE=     0.08852
 AO 1542 D4 GA   38   RE=    -0.06056
 AO 1581 D2 GA   39   RE=     0.05959
 AO 1583 D4 GA   39   RE=     0.08846
 AO 1624 D4 GA   40   RE=    -0.06037
 AO 1662 D1 GA   41   RE=     0.06930
 AO 1663 D2 GA   41   RE=    -0.07477
 AO 1665 D4 GA   41   RE=     0.08993
 AO 1703 D1 GA   42   RE=     0.05869
 AO 1704 D2 GA   42   RE=     0.05021
 AO 1706 D4 GA   42   RE=    -0.07422
 AO 1744 D1 GA   43   RE=     0.07012
 AO 1745 D2 GA   43   RE=    -0.06950
 AO 1747 D4 GA   43   RE=     0.07133
 AO 1785 D1 GA   44   RE=     0.05338
 AO 1788 D4 GA   44   RE=    -0.07782
 AO 1829 D4 GA   45   RE=     0.06019
 AO 1911 D4 GA   47   RE=     0.05968
 AO 1993 D4 GA   49   RE=    -0.11684
 AO 2031 D1 GA   50   RE=     0.05952
 AO 2075 D4 GA   51   RE=    -0.11570
 AO 2113 D1 GA   52   RE=     0.05900
 AO 2157 D4 GA   53   RE=    -0.05430
 AO 2198 D4 GA   54   RE=    -0.05240
 AO 2239 D4 GA   55   RE=    -0.05419
 AO 2280 D4 GA   56   RE=    -0.05242
 AO 2321 D4 GA   57   RE=     0.09593
 AO 2400 D1 GA   59   RE=     0.11906
 AO 2401 D2 GA   59   RE=     0.09417
 AO 2485 D4 GA   61   RE=    -0.06388
 AO 2567 D4 GA   63   RE=    -0.06390
 AO 3492  S O   113   RE=    -0.05032
 AO 3528  S O   115   RE=    -0.05016
    BAND 1010    E(A.U.)=      -0.733859
 AO   23 D2 GA    1   RE=     0.06543
 AO   64 D2 GA    2   RE=    -0.06586
 AO  145 D1 GA    4   RE=     0.15212
 AO  148 D4 GA    4   RE=     0.05571
 AO  187 D2 GA    5   RE=    -0.07819
 AO  227 D1 GA    6   RE=    -0.11171
 AO  228 D2 GA    6   RE=    -0.13558
 AO  269 D2 GA    7   RE=    -0.07695
 AO  309 D1 GA    8   RE=    -0.11461
 AO  310 D2 GA    8   RE=    -0.13221
 AO  350 D1 GA    9   RE=    -0.11469
 AO  351 D2 GA    9   RE=    -0.08326
 AO  352 D3 GA    9   RE=     0.05058
 AO  354 D5 GA    9   RE=     0.13987
 AO  392 D2 GA   10   RE=    -0.09164
 AO  394 D4 GA   10   RE=     0.06387
 AO  432 D1 GA   11   RE=    -0.11476
 AO  433 D2 GA   11   RE=    -0.08357
 AO  434 D3 GA   11   RE=    -0.05063
 AO  436 D5 GA   11   RE=    -0.13986
 AO  474 D2 GA   12   RE=    -0.09145
 AO  476 D4 GA   12   RE=     0.06384
 AO  515 D2 GA   13   RE=     0.09970
 AO  517 D4 GA   13   RE=    -0.06454
 AO  597 D2 GA   15   RE=     0.09970
 AO  599 D4 GA   15   RE=    -0.06457
 AO  678 D1 GA   17   RE=    -0.05715
 AO  719 D1 GA   18   RE=     0.16260
 AO  760 D1 GA   19   RE=    -0.08507
 AO  801 D1 GA   20   RE=     0.13659
 AO  802 D2 GA   20   RE=     0.06090
 AO  843 D2 GA   21   RE=     0.05450
 AO  925 D2 GA   23   RE=     0.05075
 AO 1171 D2 GA   29   RE=    -0.05063
 AO 1173 D4 GA   29   RE=     0.07011
 AO 1211 D1 GA   30   RE=     0.06166
 AO 1212 D2 GA   30   RE=    -0.08432
 AO 1214 D4 GA   30   RE=     0.05054
 AO 1253 D2 GA   31   RE=    -0.05063
 AO 1255 D4 GA   31   RE=     0.07009
 AO 1293 D1 GA   32   RE=     0.06165
 AO 1294 D2 GA   32   RE=    -0.08432
 AO 1296 D4 GA   32   RE=     0.05056
 AO 1376 D2 GA   34   RE=     0.05042
 AO 1379 D5 GA   34   RE=    -0.06017
 AO 1458 D2 GA   36   RE=     0.05050
 AO 1461 D5 GA   36   RE=     0.06018
 AO 1540 D2 GA   38   RE=     0.08221
 AO 1542 D4 GA   38   RE=     0.07557
 AO 1622 D2 GA   40   RE=     0.08212
 AO 1624 D4 GA   40   RE=     0.07550
 AO 1662 D1 GA   41   RE=     0.05853
 AO 1663 D2 GA   41   RE=     0.05133
 AO 1703 D1 GA   42   RE=    -0.05118
 AO 1706 D4 GA   42   RE=     0.06746
 AO 1744 D1 GA   43   RE=     0.08812
 AO 1826 D1 GA   45   RE=     0.06862
 AO 1827 D2 GA   45   RE=    -0.06064
 AO 1829 D4 GA   45   RE=    -0.11949
 AO 1867 D1 GA   46   RE=     0.05185
 AO 1908 D1 GA   47   RE=     0.06723
 AO 1909 D2 GA   47   RE=    -0.06070
 AO 1911 D4 GA   47   RE=    -0.12018
 AO 1949 D1 GA   48   RE=     0.05229
 AO 1950 D2 GA   48   RE=    -0.05440
 AO 1991 D2 GA   49   RE=     0.05614
 AO 2031 D1 GA   50   RE=    -0.06415
 AO 2034 D4 GA   50   RE=    -0.05710
 AO 2073 D2 GA   51   RE=     0.05628
 AO 2113 D1 GA   52   RE=    -0.06417
 AO 2116 D4 GA   52   RE=    -0.05715
 AO 2318 D1 GA   57   RE=    -0.07386
 AO 2321 D4 GA   57   RE=     0.14226
 AO 2400 D1 GA   59   RE=     0.25306
 AO 2401 D2 GA   59   RE=     0.07944
 AO 2403 D4 GA   59   RE=    -0.17807
 AO 2482 D1 GA   61   RE=    -0.07362
 AO 2483 D2 GA   61   RE=     0.06908
 AO 2485 D4 GA   61   RE=     0.07500
 AO 2523 D1 GA   62   RE=    -0.05898
 AO 2524 D2 GA   62   RE=     0.07837
 AO 2526 D4 GA   62   RE=     0.05923
 AO 2564 D1 GA   63   RE=    -0.07385
 AO 2565 D2 GA   63   RE=     0.06893
 AO 2567 D4 GA   63   RE=     0.07511
 AO 2605 D1 GA   64   RE=    -0.05856
 AO 2606 D2 GA   64   RE=     0.07860
 AO 2608 D4 GA   64   RE=     0.05952
    BAND 1011    E(A.U.)=      -0.733321
 AO   23 D2 GA    1   RE=     0.15328
 AO   66 D4 GA    2   RE=    -0.07049
 AO  145 D1 GA    4   RE=     0.17306
 AO  146 D2 GA    4   RE=     0.14306
 AO  148 D4 GA    4   RE=    -0.06693
 AO  187 D2 GA    5   RE=     0.07545
 AO  227 D1 GA    6   RE=     0.15132
 AO  269 D2 GA    7   RE=     0.07779
 AO  309 D1 GA    8   RE=     0.14776
 AO  350 D1 GA    9   RE=    -0.11890
 AO  352 D3 GA    9   RE=     0.05504
 AO  354 D5 GA    9   RE=     0.19182
 AO  432 D1 GA   11   RE=    -0.11897
 AO  434 D3 GA   11   RE=    -0.05510
 AO  436 D5 GA   11   RE=    -0.19182
 AO  555 D1 GA   14   RE=     0.06993
 AO  637 D1 GA   16   RE=     0.06992
 AO  719 D1 GA   18   RE=    -0.06240
 AO  720 D2 GA   18   RE=    -0.09182
 AO  760 D1 GA   19   RE=    -0.05443
 AO  801 D1 GA   20   RE=    -0.08646
 AO  802 D2 GA   20   RE=    -0.06308
 AO  883 D1 GA   22   RE=    -0.05924
 AO  884 D2 GA   22   RE=    -0.07333
 AO  886 D4 GA   22   RE=     0.05317
 AO  965 D1 GA   24   RE=    -0.05732
 AO  966 D2 GA   24   RE=    -0.07901
 AO 1048 D2 GA   26   RE=    -0.17364
 AO 1050 D4 GA   26   RE=     0.08537
 AO 1130 D2 GA   28   RE=    -0.17316
 AO 1132 D4 GA   28   RE=     0.08507
 AO 1171 D2 GA   29   RE=     0.07176
 AO 1173 D4 GA   29   RE=    -0.05722
 AO 1253 D2 GA   31   RE=     0.07176
 AO 1255 D4 GA   31   RE=    -0.05721
 AO 1376 D2 GA   34   RE=    -0.09286
 AO 1458 D2 GA   36   RE=    -0.09234
[...]
-rw-r--r-- 1 felipe users         0 Dec 20 15:04 fort.61.pe03
-rw-r--r-- 1 felipe users         0 Dec 20 15:04 fort.61.pe04
-rw-r--r-- 1 felipe users         0 Dec 20 15:04 fort.61.pe05
-rw-r--r-- 1 felipe users         0 Dec 20 15:04 fort.61.pe06
-rw-r--r-- 1 felipe users         0 Dec 20 15:04 fort.61.pe07
-rw-r--r-- 1 felipe users         0 Dec 20 15:04 fort.61.pe08
-rw-r--r-- 1 felipe users         0 Dec 20 15:04 fort.61.pe09
-rw-r--r-- 1 felipe users         0 Dec 20 15:04 fort.61.pe10
-rw-r--r-- 1 felipe users         0 Dec 20 15:04 fort.61.pe11
-rw-r--r-- 1 felipe users         0 Dec 20 15:04 fort.61.pe12
-rw-r--r-- 1 felipe users         0 Dec 20 15:04 fort.61.pe13
-rw-r--r-- 1 felipe users         0 Dec 20 15:04 fort.61.pe14
-rw-r--r-- 1 felipe users         0 Dec 20 15:04 fort.61.pe15
-rw-r--r-- 1 felipe users         0 Dec 20 15:04 fort.61.pe16
-rw-r--r-- 1 felipe users         0 Dec 20 15:04 fort.61.pe17
-rw-r--r-- 1 felipe users         0 Dec 20 15:04 fort.61.pe18
-rw-r--r-- 1 felipe users         0 Dec 20 15:04 fort.61.pe19
-rw-r--r-- 1 felipe users         0 Dec 20 15:04 fort.61.pe20
-rw-r--r-- 1 felipe users         0 Dec 20 15:04 fort.61.pe21
-rw-r--r-- 1 felipe users         0 Dec 20 15:04 fort.61.pe22
-rw-r--r-- 1 felipe users         0 Dec 20 15:04 fort.61.pe23
-rw-r--r-- 1 felipe users         0 Dec 20 15:04 fort.61.pe24
-rw-r--r-- 1 felipe users         0 Dec 20 15:04 fort.61.pe25
-rw-r--r-- 1 felipe users         0 Dec 20 15:04 fort.61.pe26
-rw-r--r-- 1 felipe users         0 Dec 20 15:04 fort.61.pe27
-rw-r--r-- 1 felipe users         0 Dec 20 15:04 fort.61.pe28
-rw-r--r-- 1 felipe users         0 Dec 20 15:04 fort.61.pe29
-rw-r--r-- 1 felipe users         0 Dec 20 15:04 fort.61.pe30
-rw-r--r-- 1 felipe users         0 Dec 20 15:04 fort.61.pe31
-rw-r--r-- 1 felipe users         0 Dec 20 15:04 fort.61.pe32
-rw-r--r-- 1 felipe users         0 Dec 20 15:04 fort.61.pe33
-rw-r--r-- 1 felipe users         0 Dec 20 15:04 fort.61.pe34
-rw-r--r-- 1 felipe users         0 Dec 20 15:04 fort.61.pe35
-rw-r--r-- 1 felipe users         0 Dec 20 15:04 fort.61.pe36
-rw-r--r-- 1 felipe users         0 Dec 20 15:04 fort.61.pe37
-rw-r--r-- 1 felipe users         0 Dec 20 15:04 fort.61.pe38
-rw-r--r-- 1 felipe users         0 Dec 20 15:04 fort.61.pe39
-rw-r--r-- 1 felipe users         0 Dec 20 15:04 fort.61.pe40
-rw-r--r-- 1 felipe users         0 Dec 20 15:04 fort.61.pe41
-rw-r--r-- 1 felipe users         0 Dec 20 15:04 fort.61.pe42
-rw-r--r-- 1 felipe users         0 Dec 20 15:04 fort.61.pe43
-rw-r--r-- 1 felipe users         0 Dec 20 15:04 fort.61.pe44
-rw-r--r-- 1 felipe users         0 Dec 20 15:04 fort.61.pe45
-rw-r--r-- 1 felipe users         0 Dec 20 15:04 fort.61.pe46
-rw-r--r-- 1 felipe users         0 Dec 20 15:04 fort.61.pe47
-rw-r--r-- 1 felipe users         0 Dec 20 15:04 fort.61.pe48
-rw-r--r-- 1 felipe users         0 Dec 20 15:04 fort.61.pe49
-rw-r--r-- 1 felipe users         0 Dec 20 15:04 fort.61.pe50
-rw-r--r-- 1 felipe users         0 Dec 20 15:04 fort.61.pe51
-rw-r--r-- 1 felipe users         0 Dec 20 15:04 fort.61.pe52
-rw-r--r-- 1 felipe users         0 Dec 20 15:04 fort.61.pe53
-rw-r--r-- 1 felipe users         0 Dec 20 15:04 fort.61.pe54
-rw-r--r-- 1 felipe users         0 Dec 20 15:04 fort.61.pe55
-rw-r--r-- 1 felipe users         0 Dec 20 15:04 fort.61.pe56
-rw-r--r-- 1 felipe users         0 Dec 20 15:04 fort.61.pe57
-rw-r--r-- 1 felipe users         0 Dec 20 15:04 fort.61.pe58
-rw-r--r-- 1 felipe users         0 Dec 20 15:04 fort.61.pe59
-rw-r--r-- 1 felipe users         0 Dec 20 15:04 fort.61.pe60
-rw-r--r-- 1 felipe users         0 Dec 20 15:04 fort.61.pe61
-rw-r--r-- 1 felipe users         0 Dec 20 15:04 fort.61.pe62
-rw-r--r-- 1 felipe users         0 Dec 20 15:04 fort.61.pe63
-rw-r--r-- 1 felipe users         0 Dec 20 15:04 fort.62.pe00
-rw-r--r-- 1 felipe users         0 Dec 20 15:04 fort.62.pe01
-rw-r--r-- 1 felipe users         0 Dec 20 15:04 fort.62.pe02
-rw-r--r-- 1 felipe users         0 Dec 20 15:04 fort.62.pe03
-rw-r--r-- 1 felipe users         0 Dec 20 15:04 fort.62.pe04
-rw-r--r-- 1 felipe users         0 Dec 20 15:04 fort.62.pe05
-rw-r--r-- 1 felipe users         0 Dec 20 15:04 fort.62.pe06
-rw-r--r-- 1 felipe users         0 Dec 20 15:04 fort.62.pe07
-rw-r--r-- 1 felipe users         0 Dec 20 15:04 fort.62.pe08
-rw-r--r-- 1 felipe users         0 Dec 20 15:04 fort.62.pe09
-rw-r--r-- 1 felipe users         0 Dec 20 15:04 fort.62.pe10
-rw-r--r-- 1 felipe users         0 Dec 20 15:04 fort.62.pe11
-rw-r--r-- 1 felipe users         0 Dec 20 15:04 fort.62.pe12
-rw-r--r-- 1 felipe users         0 Dec 20 15:04 fort.62.pe13
-rw-r--r-- 1 felipe users         0 Dec 20 15:04 fort.62.pe14
-rw-r--r-- 1 felipe users         0 Dec 20 15:04 fort.62.pe15
-rw-r--r-- 1 felipe users         0 Dec 20 15:04 fort.62.pe16
-rw-r--r-- 1 felipe users         0 Dec 20 15:04 fort.62.pe17
-rw-r--r-- 1 felipe users         0 Dec 20 15:04 fort.62.pe18
-rw-r--r-- 1 felipe users         0 Dec 20 15:04 fort.62.pe19
-rw-r--r-- 1 felipe users         0 Dec 20 15:04 fort.62.pe20
-rw-r--r-- 1 felipe users         0 Dec 20 15:04 fort.62.pe21
-rw-r--r-- 1 felipe users         0 Dec 20 15:04 fort.62.pe22
-rw-r--r-- 1 felipe users         0 Dec 20 15:04 fort.62.pe23
-rw-r--r-- 1 felipe users         0 Dec 20 15:04 fort.62.pe24
-rw-r--r-- 1 felipe users         0 Dec 20 15:04 fort.62.pe25
-rw-r--r-- 1 felipe users         0 Dec 20 15:04 fort.62.pe26
-rw-r--r-- 1 felipe users         0 Dec 20 15:04 fort.62.pe27
-rw-r--r-- 1 felipe users         0 Dec 20 15:04 fort.62.pe28
-rw-r--r-- 1 felipe users         0 Dec 20 15:04 fort.62.pe29
-rw-r--r-- 1 felipe users         0 Dec 20 15:04 fort.62.pe30
-rw-r--r-- 1 felipe users         0 Dec 20 15:04 fort.62.pe31
-rw-r--r-- 1 felipe users         0 Dec 20 15:04 fort.62.pe32
-rw-r--r-- 1 felipe users         0 Dec 20 15:04 fort.62.pe33
-rw-r--r-- 1 felipe users         0 Dec 20 15:04 fort.62.pe34
-rw-r--r-- 1 felipe users         0 Dec 20 15:04 fort.62.pe35
-rw-r--r-- 1 felipe users         0 Dec 20 15:04 fort.62.pe36
-rw-r--r-- 1 felipe users         0 Dec 20 15:04 fort.62.pe37
-rw-r--r-- 1 felipe users         0 Dec 20 15:04 fort.62.pe38
-rw-r--r-- 1 felipe users         0 Dec 20 15:04 fort.62.pe39
-rw-r--r-- 1 felipe users         0 Dec 20 15:04 fort.62.pe40
-rw-r--r-- 1 felipe users         0 Dec 20 15:04 fort.62.pe41
-rw-r--r-- 1 felipe users         0 Dec 20 15:04 fort.62.pe42
-rw-r--r-- 1 felipe users         0 Dec 20 15:04 fort.62.pe43
-rw-r--r-- 1 felipe users         0 Dec 20 15:04 fort.62.pe44
-rw-r--r-- 1 felipe users         0 Dec 20 15:04 fort.62.pe45
-rw-r--r-- 1 felipe users         0 Dec 20 15:04 fort.62.pe46
-rw-r--r-- 1 felipe users         0 Dec 20 15:04 fort.62.pe47
-rw-r--r-- 1 felipe users         0 Dec 20 15:04 fort.62.pe48
-rw-r--r-- 1 felipe users         0 Dec 20 15:04 fort.62.pe49
-rw-r--r-- 1 felipe users         0 Dec 20 15:04 fort.62.pe50
-rw-r--r-- 1 felipe users         0 Dec 20 15:04 fort.62.pe51
-rw-r--r-- 1 felipe users         0 Dec 20 15:04 fort.62.pe52
-rw-r--r-- 1 felipe users         0 Dec 20 15:04 fort.62.pe53
-rw-r--r-- 1 felipe users         0 Dec 20 15:04 fort.62.pe54
-rw-r--r-- 1 felipe users         0 Dec 20 15:04 fort.62.pe55
-rw-r--r-- 1 felipe users         0 Dec 20 15:04 fort.62.pe56
-rw-r--r-- 1 felipe users         0 Dec 20 15:04 fort.62.pe57
-rw-r--r-- 1 felipe users         0 Dec 20 15:04 fort.62.pe58
-rw-r--r-- 1 felipe users         0 Dec 20 15:04 fort.62.pe59
-rw-r--r-- 1 felipe users         0 Dec 20 15:04 fort.62.pe60
-rw-r--r-- 1 felipe users         0 Dec 20 15:04 fort.62.pe61
-rw-r--r-- 1 felipe users         0 Dec 20 15:04 fort.62.pe62
-rw-r--r-- 1 felipe users         0 Dec 20 15:04 fort.62.pe63
-rw-r--r-- 1 felipe users         0 Dec 20 15:04 fort.75.pe00
-rw-r--r-- 1 felipe users         0 Dec 20 15:04 fort.75.pe01
-rw-r--r-- 1 felipe users         0 Dec 20 15:04 fort.75.pe02
-rw-r--r-- 1 felipe users         0 Dec 20 15:04 fort.75.pe03
-rw-r--r-- 1 felipe users         0 Dec 20 15:04 fort.75.pe04
-rw-r--r-- 1 felipe users         0 Dec 20 15:04 fort.75.pe05
-rw-r--r-- 1 felipe users         0 Dec 20 15:04 fort.75.pe06
-rw-r--r-- 1 felipe users         0 Dec 20 15:04 fort.75.pe07
-rw-r--r-- 1 felipe users         0 Dec 20 15:04 fort.75.pe08
-rw-r--r-- 1 felipe users         0 Dec 20 15:04 fort.75.pe09
-rw-r--r-- 1 felipe users         0 Dec 20 15:04 fort.75.pe10
-rw-r--r-- 1 felipe users         0 Dec 20 15:04 fort.75.pe11
-rw-r--r-- 1 felipe users         0 Dec 20 15:04 fort.75.pe12
-rw-r--r-- 1 felipe users         0 Dec 20 15:04 fort.75.pe13
-rw-r--r-- 1 felipe users         0 Dec 20 15:04 fort.75.pe14
-rw-r--r-- 1 felipe users         0 Dec 20 15:04 fort.75.pe15
-rw-r--r-- 1 felipe users         0 Dec 20 15:04 fort.75.pe16
-rw-r--r-- 1 felipe users         0 Dec 20 15:04 fort.75.pe17
-rw-r--r-- 1 felipe users         0 Dec 20 15:04 fort.75.pe18
-rw-r--r-- 1 felipe users         0 Dec 20 15:04 fort.75.pe19
-rw-r--r-- 1 felipe users         0 Dec 20 15:04 fort.75.pe20
-rw-r--r-- 1 felipe users         0 Dec 20 15:04 fort.75.pe21
-rw-r--r-- 1 felipe users         0 Dec 20 15:04 fort.75.pe22
-rw-r--r-- 1 felipe users         0 Dec 20 15:04 fort.75.pe23
-rw-r--r-- 1 felipe users         0 Dec 20 15:04 fort.75.pe24
-rw-r--r-- 1 felipe users         0 Dec 20 15:04 fort.75.pe25
-rw-r--r-- 1 felipe users         0 Dec 20 15:04 fort.75.pe26
-rw-r--r-- 1 felipe users         0 Dec 20 15:04 fort.75.pe27
-rw-r--r-- 1 felipe users         0 Dec 20 15:04 fort.75.pe28
-rw-r--r-- 1 felipe users         0 Dec 20 15:04 fort.75.pe29
-rw-r--r-- 1 felipe users         0 Dec 20 15:04 fort.75.pe30
-rw-r--r-- 1 felipe users         0 Dec 20 15:04 fort.75.pe31
-rw-r--r-- 1 felipe users         0 Dec 20 15:04 fort.75.pe32
-rw-r--r-- 1 felipe users         0 Dec 20 15:04 fort.75.pe33
-rw-r--r-- 1 felipe users         0 Dec 20 15:04 fort.75.pe34
-rw-r--r-- 1 felipe users         0 Dec 20 15:04 fort.75.pe35
-rw-r--r-- 1 felipe users         0 Dec 20 15:04 fort.75.pe36
-rw-r--r-- 1 felipe users         0 Dec 20 15:04 fort.75.pe37
-rw-r--r-- 1 felipe users         0 Dec 20 15:04 fort.75.pe38
-rw-r--r-- 1 felipe users         0 Dec 20 15:04 fort.75.pe39
-rw-r--r-- 1 felipe users         0 Dec 20 15:04 fort.75.pe40
-rw-r--r-- 1 felipe users         0 Dec 20 15:04 fort.75.pe41
-rw-r--r-- 1 felipe users         0 Dec 20 15:04 fort.75.pe42
-rw-r--r-- 1 felipe users         0 Dec 20 15:04 fort.75.pe43
-rw-r--r-- 1 felipe users         0 Dec 20 15:04 fort.75.pe44
-rw-r--r-- 1 felipe users         0 Dec 20 15:04 fort.75.pe45
-rw-r--r-- 1 felipe users         0 Dec 20 15:04 fort.75.pe46
-rw-r--r-- 1 felipe users         0 Dec 20 15:04 fort.75.pe47
-rw-r--r-- 1 felipe users         0 Dec 20 15:04 fort.75.pe48
-rw-r--r-- 1 felipe users         0 Dec 20 15:04 fort.75.pe49
-rw-r--r-- 1 felipe users         0 Dec 20 15:04 fort.75.pe50
-rw-r--r-- 1 felipe users         0 Dec 20 15:04 fort.75.pe51
-rw-r--r-- 1 felipe users         0 Dec 20 15:04 fort.75.pe52
-rw-r--r-- 1 felipe users         0 Dec 20 15:04 fort.75.pe53
-rw-r--r-- 1 felipe users         0 Dec 20 15:04 fort.75.pe54
-rw-r--r-- 1 felipe users         0 Dec 20 15:04 fort.75.pe55
-rw-r--r-- 1 felipe users         0 Dec 20 15:04 fort.75.pe56
-rw-r--r-- 1 felipe users         0 Dec 20 15:04 fort.75.pe57
-rw-r--r-- 1 felipe users         0 Dec 20 15:04 fort.75.pe58
-rw-r--r-- 1 felipe users         0 Dec 20 15:04 fort.75.pe59
-rw-r--r-- 1 felipe users         0 Dec 20 15:04 fort.75.pe60
-rw-r--r-- 1 felipe users         0 Dec 20 15:04 fort.75.pe61
-rw-r--r-- 1 felipe users         0 Dec 20 15:04 fort.75.pe62
-rw-r--r-- 1 felipe users         0 Dec 20 15:04 fort.75.pe63
-rw-r--r-- 1 felipe users         0 Dec 20 15:04 fort.77.pe00
-rw-r--r-- 1 felipe users         0 Dec 20 15:04 fort.77.pe01
-rw-r--r-- 1 felipe users         0 Dec 20 15:04 fort.77.pe02
-rw-r--r-- 1 felipe users         0 Dec 20 15:04 fort.77.pe03
-rw-r--r-- 1 felipe users         0 Dec 20 15:04 fort.77.pe04
-rw-r--r-- 1 felipe users         0 Dec 20 15:04 fort.77.pe05
-rw-r--r-- 1 felipe users         0 Dec 20 15:04 fort.77.pe06
-rw-r--r-- 1 felipe users         0 Dec 20 15:04 fort.77.pe07
-rw-r--r-- 1 felipe users         0 Dec 20 15:04 fort.77.pe08
-rw-r--r-- 1 felipe users         0 Dec 20 15:04 fort.77.pe09
-rw-r--r-- 1 felipe users         0 Dec 20 15:04 fort.77.pe10
-rw-r--r-- 1 felipe users         0 Dec 20 15:04 fort.77.pe11
-rw-r--r-- 1 felipe users         0 Dec 20 15:04 fort.77.pe12
-rw-r--r-- 1 felipe users         0 Dec 20 15:04 fort.77.pe13
-rw-r--r-- 1 felipe users         0 Dec 20 15:04 fort.77.pe14
-rw-r--r-- 1 felipe users         0 Dec 20 15:04 fort.77.pe15
-rw-r--r-- 1 felipe users         0 Dec 20 15:04 fort.77.pe16
-rw-r--r-- 1 felipe users         0 Dec 20 15:04 fort.77.pe17
-rw-r--r-- 1 felipe users         0 Dec 20 15:04 fort.77.pe18
-rw-r--r-- 1 felipe users         0 Dec 20 15:04 fort.77.pe19
-rw-r--r-- 1 felipe users         0 Dec 20 15:04 fort.77.pe20
-rw-r--r-- 1 felipe users         0 Dec 20 15:04 fort.77.pe21
-rw-r--r-- 1 felipe users         0 Dec 20 15:04 fort.77.pe22
-rw-r--r-- 1 felipe users         0 Dec 20 15:04 fort.77.pe23
-rw-r--r-- 1 felipe users         0 Dec 20 15:04 fort.77.pe24
-rw-r--r-- 1 felipe users         0 Dec 20 15:04 fort.77.pe25
-rw-r--r-- 1 felipe users         0 Dec 20 15:04 fort.77.pe26
-rw-r--r-- 1 felipe users         0 Dec 20 15:04 fort.77.pe27
-rw-r--r-- 1 felipe users         0 Dec 20 15:04 fort.77.pe28
-rw-r--r-- 1 felipe users         0 Dec 20 15:04 fort.77.pe29
-rw-r--r-- 1 felipe users         0 Dec 20 15:04 fort.77.pe30
-rw-r--r-- 1 felipe users         0 Dec 20 15:04 fort.77.pe31
-rw-r--r-- 1 felipe users         0 Dec 20 15:04 fort.77.pe32
-rw-r--r-- 1 felipe users         0 Dec 20 15:04 fort.77.pe33
-rw-r--r-- 1 felipe users         0 Dec 20 15:04 fort.77.pe34
-rw-r--r-- 1 felipe users         0 Dec 20 15:04 fort.77.pe35
-rw-r--r-- 1 felipe users         0 Dec 20 15:04 fort.77.pe36
-rw-r--r-- 1 felipe users         0 Dec 20 15:04 fort.77.pe37
-rw-r--r-- 1 felipe users         0 Dec 20 15:04 fort.77.pe38
-rw-r--r-- 1 felipe users         0 Dec 20 15:04 fort.77.pe39
-rw-r--r-- 1 felipe users         0 Dec 20 15:04 fort.77.pe40
-rw-r--r-- 1 felipe users         0 Dec 20 15:04 fort.77.pe41
-rw-r--r-- 1 felipe users         0 Dec 20 15:04 fort.77.pe42
-rw-r--r-- 1 felipe users         0 Dec 20 15:04 fort.77.pe43
-rw-r--r-- 1 felipe users         0 Dec 20 15:04 fort.77.pe44
-rw-r--r-- 1 felipe users         0 Dec 20 15:04 fort.77.pe45
-rw-r--r-- 1 felipe users         0 Dec 20 15:04 fort.77.pe46
-rw-r--r-- 1 felipe users         0 Dec 20 15:04 fort.77.pe47
-rw-r--r-- 1 felipe users         0 Dec 20 15:04 fort.77.pe48
-rw-r--r-- 1 felipe users         0 Dec 20 15:04 fort.77.pe49
-rw-r--r-- 1 felipe users         0 Dec 20 15:04 fort.77.pe50
-rw-r--r-- 1 felipe users         0 Dec 20 15:04 fort.77.pe51
-rw-r--r-- 1 felipe users         0 Dec 20 15:04 fort.77.pe52
-rw-r--r-- 1 felipe users         0 Dec 20 15:04 fort.77.pe53
-rw-r--r-- 1 felipe users         0 Dec 20 15:04 fort.77.pe54
-rw-r--r-- 1 felipe users         0 Dec 20 15:04 fort.77.pe55
-rw-r--r-- 1 felipe users         0 Dec 20 15:04 fort.77.pe56
-rw-r--r-- 1 felipe users         0 Dec 20 15:04 fort.77.pe57
-rw-r--r-- 1 felipe users         0 Dec 20 15:04 fort.77.pe58
-rw-r--r-- 1 felipe users         0 Dec 20 15:04 fort.77.pe59
-rw-r--r-- 1 felipe users         0 Dec 20 15:04 fort.77.pe60
-rw-r--r-- 1 felipe users         0 Dec 20 15:04 fort.77.pe61
-rw-r--r-- 1 felipe users         0 Dec 20 15:04 fort.77.pe62
-rw-r--r-- 1 felipe users         0 Dec 20 15:04 fort.77.pe63
-rw-r--r-- 1 felipe users         0 Dec 20 15:04 fort.8.pe00
-rw-r--r-- 1 felipe users         0 Dec 20 15:04 fort.8.pe01
-rw-r--r-- 1 felipe users         0 Dec 20 15:04 fort.8.pe02
-rw-r--r-- 1 felipe users         0 Dec 20 15:04 fort.8.pe03
-rw-r--r-- 1 felipe users         0 Dec 20 15:04 fort.8.pe04
-rw-r--r-- 1 felipe users         0 Dec 20 15:04 fort.8.pe05
-rw-r--r-- 1 felipe users         0 Dec 20 15:04 fort.8.pe06
-rw-r--r-- 1 felipe users         0 Dec 20 15:04 fort.8.pe07
-rw-r--r-- 1 felipe users         0 Dec 20 15:04 fort.8.pe08
-rw-r--r-- 1 felipe users         0 Dec 20 15:04 fort.8.pe09
-rw-r--r-- 1 felipe users         0 Dec 20 15:04 fort.8.pe10
-rw-r--r-- 1 felipe users         0 Dec 20 15:04 fort.8.pe11
-rw-r--r-- 1 felipe users         0 Dec 20 15:04 fort.8.pe12
-rw-r--r-- 1 felipe users         0 Dec 20 15:04 fort.8.pe13
-rw-r--r-- 1 felipe users         0 Dec 20 15:04 fort.8.pe14
-rw-r--r-- 1 felipe users         0 Dec 20 15:04 fort.8.pe15
-rw-r--r-- 1 felipe users         0 Dec 20 15:04 fort.8.pe16
-rw-r--r-- 1 felipe users         0 Dec 20 15:04 fort.8.pe17
-rw-r--r-- 1 felipe users         0 Dec 20 15:04 fort.8.pe18
-rw-r--r-- 1 felipe users         0 Dec 20 15:04 fort.8.pe19
-rw-r--r-- 1 felipe users         0 Dec 20 15:04 fort.8.pe20
-rw-r--r-- 1 felipe users         0 Dec 20 15:04 fort.8.pe21
-rw-r--r-- 1 felipe users         0 Dec 20 15:04 fort.8.pe22
-rw-r--r-- 1 felipe users         0 Dec 20 15:04 fort.8.pe23
-rw-r--r-- 1 felipe users         0 Dec 20 15:04 fort.8.pe24
-rw-r--r-- 1 felipe users         0 Dec 20 15:04 fort.8.pe25
-rw-r--r-- 1 felipe users         0 Dec 20 15:04 fort.8.pe26
-rw-r--r-- 1 felipe users         0 Dec 20 15:04 fort.8.pe27
-rw-r--r-- 1 felipe users         0 Dec 20 15:04 fort.8.pe28
-rw-r--r-- 1 felipe users         0 Dec 20 15:04 fort.8.pe29
-rw-r--r-- 1 felipe users         0 Dec 20 15:04 fort.8.pe30
-rw-r--r-- 1 felipe users         0 Dec 20 15:04 fort.8.pe31
-rw-r--r-- 1 felipe users         0 Dec 20 15:04 fort.8.pe32
-rw-r--r-- 1 felipe users         0 Dec 20 15:04 fort.8.pe33
-rw-r--r-- 1 felipe users         0 Dec 20 15:04 fort.8.pe34
-rw-r--r-- 1 felipe users         0 Dec 20 15:04 fort.8.pe35
-rw-r--r-- 1 felipe users         0 Dec 20 15:04 fort.8.pe36
-rw-r--r-- 1 felipe users         0 Dec 20 15:04 fort.8.pe37
-rw-r--r-- 1 felipe users         0 Dec 20 15:04 fort.8.pe38
-rw-r--r-- 1 felipe users         0 Dec 20 15:04 fort.8.pe39
-rw-r--r-- 1 felipe users         0 Dec 20 15:04 fort.8.pe40
-rw-r--r-- 1 felipe users         0 Dec 20 15:04 fort.8.pe41
-rw-r--r-- 1 felipe users         0 Dec 20 15:04 fort.8.pe42
-rw-r--r-- 1 felipe users         0 Dec 20 15:04 fort.8.pe43
-rw-r--r-- 1 felipe users         0 Dec 20 15:04 fort.8.pe44
-rw-r--r-- 1 felipe users         0 Dec 20 15:04 fort.8.pe45
-rw-r--r-- 1 felipe users         0 Dec 20 15:04 fort.8.pe46
-rw-r--r-- 1 felipe users         0 Dec 20 15:04 fort.8.pe47
-rw-r--r-- 1 felipe users 151519240 Dec 20 15:14 fort.8.pe48
-rw-r--r-- 1 felipe users 151519240 Dec 20 15:14 fort.8.pe49
-rw-r--r-- 1 felipe users 151519240 Dec 20 15:14 fort.8.pe50
-rw-r--r-- 1 felipe users 151519240 Dec 20 15:14 fort.8.pe51
-rw-r--r-- 1 felipe users 151519240 Dec 20 15:14 fort.8.pe52
-rw-r--r-- 1 felipe users 151519240 Dec 20 15:14 fort.8.pe53
-rw-r--r-- 1 felipe users 151519240 Dec 20 15:14 fort.8.pe54
-rw-r--r-- 1 felipe users 151519240 Dec 20 15:14 fort.8.pe55
-rw-r--r-- 1 felipe users 151519240 Dec 20 15:14 fort.8.pe56
-rw-r--r-- 1 felipe users 151519240 Dec 20 15:14 fort.8.pe57
-rw-r--r-- 1 felipe users 151519240 Dec 20 15:14 fort.8.pe58
-rw-r--r-- 1 felipe users 151519240 Dec 20 15:14 fort.8.pe59
-rw-r--r-- 1 felipe users 151519240 Dec 20 15:14 fort.8.pe60
-rw-r--r-- 1 felipe users 151519240 Dec 20 15:14 fort.8.pe61
-rw-r--r-- 1 felipe users 151519240 Dec 20 15:14 fort.8.pe62
-rw-r--r-- 1 felipe users 151519240 Dec 20 15:14 fort.8.pe63
-rw-r--r-- 1 felipe users 143037724 Dec 20 15:04 fort.9
-rw-r--r-- 1 felipe users 376715886 Dec 20 15:04 fort.98
-rw-r--r-- 1 felipe users        33 Dec 20 15:04 INPUT
-rwxr-xr-x 1 felipe users 104622352 Dec 20 15:04 Pproperties
file fort.98 saved as /home/felipe/Wide-Band-Gap/Ga2O3/18_HF/TETRA/GaO_TETRA_18HF_ANBD.f98
removing temporary directories /home/felipe/tmp/tmp_p193468_felipe from each node
