date Tue Dec 30 08:01:08 PM CET 2025
master hostname valdubon
master system Linux valdubon 6.4.0-150600.23.73-default #1 SMP PREEMPT_DYNAMIC Tue Oct 7 08:43:02 UTC 2025 (46f6a23) x86_64 x86_64 x86_64 GNU/Linux
user felipe
output data in /home/felipe/Wide-Band-Gap/Ga2O3/18_HF/OCTA/GaO_OCTA_18HF_ANBD.outp
mpirun executable in /home/felipe/openmpi-4.1.5/bin
file machines.LINUX in /home/felipe/CRYSTAL23/utils23
list of nodes in /home/felipe/CRYSTAL23/utils23/nodes.par
creating temporary directories /home/felipe/tmp/tmp_p79059_felipe on each node
copying input file on each node
scf guess from /home/felipe/Wide-Band-Gap/Ga2O3/18_HF/OCTA/GaO_OCTA_18HF.f9
copying Pproperties executable on each node
properties input data in /home/felipe/Wide-Band-Gap/Ga2O3/18_HF/OCTA/GaO_OCTA_18HF_ANBD.d3
NEWK
0 0
1 0
ANBD
1
0
0.05
1
END
copying input file on each node
wave function formatted data from /home/felipe/Wide-Band-Gap/Ga2O3/18_HF/OCTA/GaO_OCTA_18HF.f98
          64 PROCESSORS WORKING

         
 *******************************************************************************
 *                                                                             *
 *                               CRYSTAL23                                     *
 *                      public : 1.0.1 - October 2022                          *
 *                       HTTP://WWW.CRYSTAL.UNITO.IT                           *
 *                                                                             *
 *                              MAIN AUTHORS                                   *
 *                                                                             *
 *  R. DOVESI(1,11), V.R. SAUNDERS(2), C. ROETTI(1,11), R. ORLANDO(1,11),      *
 *  C.M. ZICOVICH-WILSON(1,3), F. PASCALE(4), B. CIVALLERI(1,11),              *
 *  K. DOLL(5), N.M. HARRISON(6), I.J. BUSH(7), Ph. D'ARCO(8),                 *
 *  M. LLUNELL(9), M. CAUSA'(10), Y. NOEL(8), L. MASCHIO(1,11), A. ERBA(1,11)  *
 *  M. RE'RAT(14), S. CASASSA(1,11), B.G. SEARLE(2), J.K. DESMARAIS(1)         *
 *                                                                             *
 *        CONTRIBUTIONS TO THE CODE HAVE ALSO BEEN GIVEN BY                    *
 *                                                                             *
 *  M. FERRABONE(1,11), M. DE LA PIERRE(1,11), M. FERRERO(1,11),               *
 *  J. BAIMA(1,11), E. ALBANESE(1,11), M.F. PEINTINGER(12), R. BAST(13),       *
 *  B. KIRTMAN(15), V. LACIVITA(1,11), R. DEMICHELIS(1,16)                     *
 *  G. BRANDEBURG(17), S. SALUSTRO(1,11), G. SANSONE(1,11)                     *
 *  M.T. RUGGIERO(18), L.E. DAGA(1), L. DONA'(1), A. COSSARD(1)                *
 *                                                                             *
 * (1) THEORETICAL CHEMISTRY GROUP - UNIVERSITA' DI TORINO - TORINO (ITALY)    *
 * (2) SCIENTIFIC COMPUTING DEPARTMENT - STFC DARESBURY (UK)                   *
 * (3) UNIVERSIDAD AUTONOMA DEL ESTADO DE MORELOS - CUERNAVACA (MEXICO)        *
 * (4) UNIVERSITE' DE LORRAINE - NANCY (FRANCE)                                *
 * (5) UNIVERSITAET STUTTGART- STUTTGART (GERMANY)                             *
 * (6) IMPERIAL COLLEGE - LONDON (UK)                                          *
 * (7) SCIENTIFIC COMPUTING DEPARTMENT - STFC RAL (UK)                         *
 * (8) UPMC - SORBONNE UNIVERSITES - PARIS (FRANCE)                            *
 * (9) UNIVERSIDAD DE BARCELONA - BARCELONA (SPAIN)                            *
 *(10) UNIVERSITA' DI NAPOLI "FEDERICO II" - NAPOLI (ITALY)                    *
 *(11) NIS - NANOSTRUCTURED INTERFACES AND SURFACES - TORINO (ITALY)           *
 *(12) MPI FUER CHEMISCHE ENERGIEKONVERSION - MUELHEIM AN DER RUHR (GERMANY)   *
 *(13) UNIVERSITY OF TROMSO - TROMSO (NORWAY)                                  *
 *(14) UNIVERSITE' DE PAU ET DES PAYS DE L'ADOUR - PAU (FRANCE)                *
 *(15) UNIVERSITY OF CALIFORNIA SANTA BARBARA - SANTA BARBARA (USA)            *
 *(16) CURTIN UNIVERSITY - PERTH (AUSTRALIA)                                   *
 *(17) UNIVERSITY COLLEGE LONDON - LONDON (UK)                                 *
 *(18) UNIVERSITY OF VERMONT - BURLINGTON (USA)                                *
 *                                                                             *
 *******************************************************************************
 EEEEEEEEEE STARTING  DATE 30 12 2025 TIME 20:01:16.1
 INFORMATION **** SET_MPP **** PCRYSTAL CALCULATION

 *******************************************************************************
 β-Ga₂O₃  2×2×2 super-cell  –  neutral VGa(oct)  –  HSE06  –  spin p
 CRYSTAL - PROPERTIES - TYPE OF CALCULATION :  UNRESTRICTED OPEN SHELL
 *******************************************************************************
 SPIN POLARIZED SYSTEM: SUMMED SPIN DENSITY    3.00000000

 KOHN-SHAM HAMILTONIAN

 (EXCHANGE)[CORRELATION] FUNCTIONAL:(HSE06 SR/GGA)[PERDEW-BURKE-ERNZERHOF]

 RANGE-SEPARATED HYBRID FUNCTIONAL 
 OMEGA (SHORT-RANGE)[LONG-RANGE]:(    0.1100)[    0.0000]

 HYBRID EXCHANGE - PERCENTAGE OF FOCK EXCHANGE    18.0000

 SPIN POLARIZED DFT SELECTED

 DIRECT LATTICE VECTOR COMPONENTS (ANGSTROM)
        24.59489   -0.02174    0.00000
         0.00000    6.12447    0.00000
        -2.76439   -0.02169   11.35180

 LATTICE PARAMETERS  (ANGSTROM AND DEGREES) - PRIMITIVE CELL
       A          B          C         ALPHA      BETA     GAMMA        VOLUME
   24.59490    6.12447   11.68356     90.1064  103.6861   90.0506    1709.92894
 *******************************************************************************
 N. OF ATOMS PER CELL       160 COULOMB OVERLAP TOL          (T1) 10**   -7
 NUMBER OF SHELLS          1728 COULOMB PENETRATION TOL      (T2) 10**   -7
 NUMBER OF AO              4352 EXCHANGE OVERLAP TOL         (T3) 10**   -7
 N. OF ELECTRONS PER CELL  2721 EXCHANGE PSEUDO OVP (F(G))   (T4) 10**   -7
 CORE ELECTRONS PER CELL   1956 EXCHANGE PSEUDO OVP (P(G))   (T5) 10**  -14
 N. OF SYMMETRY OPERATORS     1 POLE ORDER IN MONO ZONE                   4
 *******************************************************************************
   ATOM N.AT.  SHELL    X(A)      Y(A)      Z(A)      EXAD       N.ELECT.
 *******************************************************************************
    1   31 GA   15    -4.791    -1.520    -1.183   2.831E-01      29.281
    2   31 GA   15    -6.151    -1.511     4.509   2.831E-01      29.277
    3   31 GA   15    -4.694     1.539    -1.204   2.831E-01      29.276
    4   31 GA   15    -6.142     1.546     4.503   2.831E-01      29.271
    5   31 GA   15     7.551    -1.541    -1.147   2.831E-01      29.271
    6   31 GA   15     6.180    -1.553     4.528   2.831E-01      29.270
    7   31 GA   15     7.552     1.521    -1.148   2.831E-01      29.272
    8   31 GA   15     6.179     1.510     4.529   2.831E-01      29.270
    9   31 GA   15     1.363    -0.004    -1.139   2.831E-01      29.304
   10   31 GA   15     0.041    -0.009     4.535   2.831E-01      29.281
   11   31 GA   15     1.349     2.983    -1.148   2.831E-01      29.317
   12   31 GA   15     0.034     3.051     4.546   2.831E-01      29.277
   13   31 GA   15   -10.901     0.014    -1.167   2.831E-01      29.270
   14   31 GA   15    -9.506     0.025    -6.839   2.831E-01      29.270
   15   31 GA   15   -10.903    -3.048    -1.167   2.831E-01      29.270
   16   31 GA   15    -9.504    -3.038    -6.840   2.831E-01      29.269
   17   31 GA   15     4.774     1.517     1.184   2.831E-01      29.274
   18   31 GA   15     6.136     1.529    -4.488   2.831E-01      29.270
   19   31 GA   15     4.772    -1.545     1.185   2.831E-01      29.274
   20   31 GA   15     6.142    -1.534    -4.492   2.831E-01      29.271
   21   31 GA   15    -7.526     1.535     1.143   2.831E-01      29.268
   22   31 GA   15    -6.196     1.576    -4.531   2.831E-01      29.268
   23   31 GA   15    -7.550    -1.526     1.148   2.831E-01      29.274
   24   31 GA   15    -6.202    -1.510    -4.550   2.831E-01      29.266
   25   31 GA   15    -1.355    -0.025     1.251   2.831E-01      29.293
   26   31 GA   15     0.097     0.010    -4.566   2.831E-01      29.304
   27   31 GA   15    -1.352     3.050     1.268   2.831E-01      29.284
   28   31 GA   15    -0.012    -3.033    -4.501   2.831E-01      29.266
   29   31 GA   15    10.903    -0.010     1.162   2.831E-01      29.270
   30   31 GA   15     9.517    -0.022     6.841   2.831E-01      29.270
   31   31 GA   15    10.903     3.051     1.162   2.831E-01      29.270
   32   31 GA   15     9.517     3.041     6.841   2.831E-01      29.270
   33   31 GA   15    -4.624     0.010     1.784   2.831E-01      29.300
   34   31 GA   15    -3.353     0.071    -3.885   2.831E-01      29.329
   35   31 GA   15    -4.626     3.052     1.779   2.831E-01      29.302
   36   31 GA   15    -3.259     3.060    -3.872   2.831E-01      29.349
   37   31 GA   15     7.679    -0.014     1.800   2.831E-01      29.304
   38   31 GA   15     6.286    -0.024     7.475   2.831E-01      29.304
   39   31 GA   15     7.679     3.048     1.800   2.831E-01      29.304
   40   31 GA   15     6.286     3.037     7.475   2.831E-01      29.304
   41   31 GA   15     1.565     1.507     1.789   2.831E-01      29.313
   42   31 GA   15     2.909     1.540    -3.842   2.831E-01      29.310
   43   31 GA   15     1.566    -1.558     1.804   2.831E-01      29.302
   44   31 GA   15     2.925    -1.531    -3.852   2.831E-01      29.305
   45   31 GA   15   -10.779     1.543     1.772   2.831E-01      29.303
   46   31 GA   15    -9.406     1.552    -3.890   2.831E-01      29.303
   47   31 GA   15   -10.785    -1.520     1.776   2.831E-01      29.303
   48   31 GA   15    -9.403    -1.511    -3.888   2.831E-01      29.303
   49   31 GA   15     4.633    -0.009    -1.754   2.831E-01      29.306
   50   31 GA   15     3.269    -0.020     3.916   2.831E-01      29.304
   51   31 GA   15     4.632     3.053    -1.751   2.831E-01      29.307
   52   31 GA   15     3.266     3.040     3.918   2.831E-01      29.306
   53   31 GA   15    -7.665     0.018    -1.794   2.831E-01      29.299
   54   31 GA   15    -6.287     0.037    -7.480   2.831E-01      29.303
   55   31 GA   15    -7.666    -3.054    -1.792   2.831E-01      29.301
   56   31 GA   15    -6.283    -3.032    -7.486   2.831E-01      29.304
   57    0 XX   15    -1.649     1.747    -2.643   2.831E-01      -0.055
   58   31 GA   15    -2.898     1.532     3.909   2.831E-01      29.306
   59   31 GA   15    -1.505    -1.600    -1.858   2.831E-01      29.324
   60   31 GA   15    -2.895    -1.542     3.900   2.831E-01      29.305
   61   31 GA   15    10.783     1.524    -1.781   2.831E-01      29.304
   62   31 GA   15     9.412     1.513     3.897   2.831E-01      29.303
   63   31 GA   15    10.783    -1.538    -1.781   2.831E-01      29.304
   64   31 GA   15     9.413    -1.549     3.897   2.831E-01      29.303
   65    8 O     8    -5.755     0.021    -1.432   4.535E-01       9.085
   66    8 O     8    -7.130     0.020     4.174   4.535E-01       9.090
   67    8 O     8    -5.751     3.061    -1.429   4.535E-01       9.083
   68    8 O     8    -7.124    -3.048     4.184   4.535E-01       9.089
   69    8 O     8     6.560    -0.009    -1.439   4.535E-01       9.088
   70    8 O     8     5.187    -0.022     4.239   4.535E-01       9.089
   71    8 O     8     6.560     3.052    -1.439   4.535E-01       9.088
   72    8 O     8     5.186     3.041     4.240   4.535E-01       9.088
   73    8 O     8     0.360    -1.567    -1.383   4.535E-01       9.110
   74    8 O     8    -0.961    -1.540     4.235   4.535E-01       9.090
   75    8 O     8     0.362     1.481    -1.382   4.535E-01       8.999
   76    8 O     8    -0.962     1.520     4.223   4.535E-01       9.093
   77    8 O     8   -11.894    -1.516    -1.458   4.535E-01       9.089
   78    8 O     8    11.333    -1.550     4.222   4.535E-01       9.090
   79    8 O     8   -11.893     1.545    -1.458   4.535E-01       9.089
   80    8 O     8    11.331     1.513     4.223   4.535E-01       9.088
   81    8 O     8     5.758    -0.014     1.479   4.535E-01       9.088
   82    8 O     8     7.129    -0.001    -4.204   4.535E-01       9.087
   83    8 O     8     5.758     3.049     1.478   4.535E-01       9.088
   84    8 O     8     7.129     3.059    -4.204   4.535E-01       9.087
   85    8 O     8    -6.533    -0.005     1.431   4.535E-01       9.084
   86    8 O     8    -5.244     0.028    -4.267   4.535E-01       9.102
   87    8 O     8    -6.534    -3.049     1.433   4.535E-01       9.087
   88    8 O     8    -5.201    -3.024    -4.260   4.535E-01       9.080
   89    8 O     8    -0.391     1.512     1.444   4.535E-01       9.075
   90    8 O     8     0.976     1.561    -4.191   4.535E-01       9.090
   91    8 O     8    -0.368    -1.549     1.501   4.535E-01       9.079
   92    8 O     8     1.024    -1.526    -4.206   4.535E-01       9.087
   93    8 O     8    11.892     1.521     1.451   4.535E-01       9.087
   94    8 O     8   -11.324     1.553    -4.221   4.535E-01       9.089
   95    8 O     8    11.889    -1.541     1.453   4.535E-01       9.089
   96    8 O     8   -11.323    -1.510    -4.221   4.535E-01       9.088
   97    8 O     8    -4.271     1.529     0.613   4.535E-01       9.099
   98    8 O     8    -2.876     1.558    -5.087   4.535E-01       9.114
   99    8 O     8    -4.192    -1.530     0.593   4.535E-01       9.065
  100    8 O     8    -2.989    -1.468    -5.052   4.535E-01       9.073
  101    8 O     8     8.022     1.518     0.636   4.535E-01       9.109
  102    8 O     8     6.639     1.507     6.313   4.535E-01       9.110
  103    8 O     8     8.023    -1.544     0.635   4.535E-01       9.109
  104    8 O     8     6.637    -1.555     6.313   4.535E-01       9.109
  105    8 O     8     1.886    -0.036     0.649   4.535E-01       9.110
  106    8 O     8     3.238     0.015    -5.026   4.535E-01       9.105
  107    8 O     8     1.874     3.042     0.642   4.535E-01       9.105
  108    8 O     8     3.265     3.062    -5.026   4.535E-01       9.107
  109    8 O     8   -10.436     0.010     0.615   4.535E-01       9.108
  110    8 O     8    -9.045     0.022    -5.053   4.535E-01       9.112
  111    8 O     8   -10.437    -3.049     0.614   4.535E-01       9.108
  112    8 O     8    -9.044    -3.041    -5.054   4.535E-01       9.113
  113    8 O     8     4.296     1.520    -0.594   4.535E-01       9.105
  114    8 O     8     2.911     1.509     5.076   4.535E-01       9.108
  115    8 O     8     4.302    -1.541    -0.595   4.535E-01       9.101
  116    8 O     8     2.904    -1.551     5.075   4.535E-01       9.111
  117    8 O     8    -8.034     1.542    -0.627   4.535E-01       9.111
  118    8 O     8    -6.648     1.569    -6.325   4.535E-01       9.112
  119    8 O     8    -8.019    -1.520    -0.632   4.535E-01       9.108
  120    8 O     8    -6.656    -1.501    -6.336   4.535E-01       9.117
  121    8 O     8    -2.030    -0.177    -0.514   4.535E-01       8.578
  122    8 O     8    -3.227    -0.009     5.047   4.535E-01       9.109
  123    8 O     8    -2.098    -2.913    -0.468   4.535E-01       8.599
  124    8 O     8    -3.226     3.060     5.061   4.535E-01       9.106
  125    8 O     8    10.429    -0.008    -0.620   4.535E-01       9.110
  126    8 O     8     9.054    -0.019     5.056   4.535E-01       9.111
  127    8 O     8    10.430     3.054    -0.620   4.535E-01       9.110
  128    8 O     8     9.054     3.044     5.056   4.535E-01       9.111
  129    8 O     8    -3.519     1.540    -2.614   4.535E-01       9.159
  130    8 O     8    -4.782     1.532     3.190   4.535E-01       9.229
  131    8 O     8    -3.434    -1.494    -2.464   4.535E-01       9.210
  132    8 O     8    -4.787    -1.530     3.184   4.535E-01       9.217
  133    8 O     8     8.888     1.525    -2.471   4.535E-01       9.227
  134    8 O     8     7.515     1.515     3.207   4.535E-01       9.227
  135    8 O     8     8.887    -1.537    -2.471   4.535E-01       9.227
  136    8 O     8     7.516    -1.548     3.207   4.535E-01       9.227
  137    8 O     8     2.738    -0.016    -2.452   4.535E-01       9.223
  138    8 O     8     1.374    -0.012     3.214   4.535E-01       9.223
  139    8 O     8     2.735     3.056    -2.449   4.535E-01       9.222
  140    8 O     8     1.369     3.038     3.217   4.535E-01       9.219
  141    8 O     8    -9.565     0.017    -2.485   4.535E-01       9.229
  142    8 O     8   -10.942     0.011     3.180   4.535E-01       9.226
  143    8 O     8    -9.568    -3.045    -2.486   4.535E-01       9.229
  144    8 O     8   -10.943    -3.056     3.177   4.535E-01       9.227
  145    8 O     8     3.434     1.513     2.504   4.535E-01       9.230
  146    8 O     8     4.799     1.525    -3.166   4.535E-01       9.227
  147    8 O     8     3.436    -1.553     2.510   4.535E-01       9.231
  148    8 O     8     4.804    -1.536    -3.171   4.535E-01       9.227
  149    8 O     8    -8.876     1.542     2.455   4.535E-01       9.224
  150    8 O     8    -7.518     1.556    -3.195   4.535E-01       9.232
  151    8 O     8    -8.886    -1.522     2.460   4.535E-01       9.228
  152    8 O     8    -7.513    -1.515    -3.197   4.535E-01       9.227
  153    8 O     8    -2.728    -0.005     2.500   4.535E-01       9.229
  154    8 O     8    -1.352    -0.182    -3.325   4.535E-01       8.744
  155    8 O     8    -2.731     3.056     2.509   4.535E-01       9.234
  156    8 O     8    -1.388    -2.828    -3.307   4.535E-01       9.134
  157    8 O     8     9.569    -0.014     2.488   4.535E-01       9.228
  158    8 O     8    10.943    -0.004    -3.190   4.535E-01       9.227
  159    8 O     8     9.569     3.047     2.488   4.535E-01       9.228
  160    8 O     8    10.944     3.059    -3.189   4.535E-01       9.227
 *******************************************************************************
 DE(K)                   0.000E+00  ENERGY LEVEL SHIFTING        0.00000
 TOTAL ENERGY -1.2847527039737E+05  CONVERGENCE ON ENER       -6.521E-07
 KIN. ENERGY   1.2830154995426E+05  VIR. COEFF.           1.01754178E+00
 N. OF SCF CYCLES               26  FERMI ENERGY              -0.100E+01
 WEIGHT OF F(I) IN F(I+1)      30
 SHRINK. FACT.(MONKH.)     2  2  2  SHRINKING FACTOR(GILAT NET)        2
 NUMBER OF K POINTS IN THE IBZ   8  CELL VOLUME (A.U.)      11539.172631
 *******************************************************************************

 GCALCO - MAX INDICES DIRECT LATTICE VECTOR     7    29    15
 NO.OF VECTORS CREATED 6999 STARS 3500 RMAX   268.65658 BOHR
 TTTTTTTTTTTTTTTTTTTTTTTTTTTTTT gordsh1     TELAPSE        2.78 TCPU        1.57

 MATRIX SIZE: P(G)10860928, F(G) 1871645, P(G) IRR 5444160, F(G) IRR 1877949
 MAX G-VECTOR INDEX FOR 1- AND 2-ELECTRON INTEGRALS  87


 CAPPA:IS1  2;IS2  2;IS3  2; K PTS MONK NET   8; SYMMOPS:K SPACE   2;G SPACE   1


 CAPPA:IS1  2;IS2  2;IS3  2; K PTS MONK NET   8; SYMMOPS:K SPACE   2;G SPACE   1

 *******************************************************************************
 RESTART WITH NEW K POINTS NET
 *******************************************************************************
 POINTS IN THE IBZ                   8 POINTS(GILAT NET)                 8
 SHRINK FACTORS(MONK.)         2  2  2 SHRINK FACTOR(GILAT)              2
 *******************************************************************************
 *** K POINTS COORDINATES (OBLIQUE COORDINATES IN UNITS OF IS =  2)
   1-R(  0  0  0)   2-R(  1  0  0)   3-R(  0  1  0)   4-R(  1  1  0)
   5-R(  0  0  1)   6-R(  1  0  1)   7-R(  0  1  1)   8-R(  1  1  1)

 FERMI ENERGY AND DENSITY MATRIX CALCULATION ON COMPUTED EIGENVECTORS
 DENSITY MATRIX AT SCF CYCLE ( 26+1)

 SPIN LOCKING: NO ENERGY GAP COMPUTED

 CORE DENSITY MATRIX CALCULATION
 TTTTTTTTTTTTTTTTTTTTTTTTTTTTTT NEWK        TELAPSE      840.23 TCPU      832.66


 *******************************************************************************
  ANALYSIS OF THE MAIN COMPONENTS OF THE CRYSTALLINE ORBITALS
  MODULUS OF MINIMUM COEFFICIENT  0.50000E-01

  BANDS ANALYZED:   388
 *******************************************************************************

    K POINT   1   (  0  0  0)
    ALPHA      ELECTRONS
    BAND  979    E(A.U.)=      -0.739830
 AO   22 D1 GA    1   RE=     0.11669
 AO   23 D2 GA    1   RE=     0.12349
 AO   63 D1 GA    2   RE=     0.05336
 AO  107 D4 GA    3   RE=    -0.16034
 AO  146 D2 GA    4   RE=     0.16106
 AO  148 D4 GA    4   RE=    -0.10216
 AO  187 D2 GA    5   RE=     0.19772
 AO  189 D4 GA    5   RE=    -0.06755
 AO  228 D2 GA    6   RE=    -0.11636
 AO  269 D2 GA    7   RE=     0.08300
 AO  309 D1 GA    8   RE=     0.05186
 AO  310 D2 GA    8   RE=    -0.06888
 AO  353 D4 GA    9   RE=    -0.05909
 AO  392 D2 GA   10   RE=     0.06356
 AO  433 D2 GA   11   RE=    -0.05669
 AO  435 D4 GA   11   RE=    -0.07579
 AO  474 D2 GA   12   RE=     0.06534
 AO  556 D2 GA   14   RE=     0.07135
 AO  638 D2 GA   16   RE=     0.07115
 AO  679 D2 GA   17   RE=     0.14146
 AO  681 D4 GA   17   RE=    -0.05105
 AO  720 D2 GA   18   RE=    -0.05716
 AO  761 D2 GA   19   RE=     0.12378
 AO  802 D2 GA   20   RE=    -0.06390
 AO  843 D2 GA   21   RE=     0.06016
 AO  845 D4 GA   21   RE=    -0.06498
 AO  884 D2 GA   22   RE=     0.06055
 AO 1212 D2 GA   30   RE=     0.12843
 AO 1214 D4 GA   30   RE=    -0.06106
 AO 1294 D2 GA   32   RE=     0.12334
 AO 1498 D1 GA   37   RE=    -0.06977
 AO 1499 D2 GA   37   RE=     0.07012
 AO 1501 D4 GA   37   RE=    -0.06818
 AO 1540 D2 GA   38   RE=    -0.13460
 AO 1542 D4 GA   38   RE=     0.06993
 AO 1543 D5 GA   38   RE=     0.06550
 AO 1581 D2 GA   39   RE=     0.07653
 AO 1622 D2 GA   40   RE=    -0.11664
 AO 1624 D4 GA   40   RE=     0.08174
 AO 1625 D5 GA   40   RE=    -0.07337
 AO 1663 D2 GA   41   RE=    -0.05303
 AO 1745 D2 GA   43   RE=    -0.10437
 AO 1785 D1 GA   44   RE=    -0.11728
 AO 1788 D4 GA   44   RE=    -0.07685
 AO 1789 D5 GA   44   RE=    -0.05796
 AO 1827 D2 GA   45   RE=    -0.18097
 AO 1829 D4 GA   45   RE=     0.07562
 AO 1908 D1 GA   47   RE=    -0.06045
 AO 1949 D1 GA   48   RE=    -0.07649
 AO 1991 D2 GA   49   RE=     0.05559
 AO 1993 D4 GA   49   RE=    -0.06335
 AO 1994 D5 GA   49   RE=     0.06173
 AO 2032 D2 GA   50   RE=    -0.07713
 AO 2075 D4 GA   51   RE=    -0.07046
 AO 2114 D2 GA   52   RE=    -0.07895
 AO 2158 D5 GA   53   RE=     0.05487
 AO 2360 D2 GA   58   RE=    -0.06860
 AO 2444 D4 GA   60   RE=     0.05991
 AO 2482 D1 GA   61   RE=    -0.16399
 AO 2485 D4 GA   61   RE=    -0.08870
 AO 2564 D1 GA   63   RE=     0.20491
 AO 2565 D2 GA   63   RE=    -0.20662
 AO 2567 D4 GA   63   RE=     0.17119
 AO 2605 D1 GA   64   RE=    -0.16357
 AO 2606 D2 GA   64   RE=     0.10674
 AO 2608 D4 GA   64   RE=    -0.12448
    BAND  980    E(A.U.)=      -0.739787
 AO   22 D1 GA    1   RE=     0.05928
 AO   25 D4 GA    1   RE=     0.11841
 AO   63 D1 GA    2   RE=     0.06153
 AO   64 D2 GA    2   RE=    -0.07013
 AO   66 D4 GA    2   RE=     0.06947
 AO  104 D1 GA    3   RE=    -0.05569
 AO  105 D2 GA    3   RE=    -0.05303
 AO  107 D4 GA    3   RE=    -0.16024
 AO  145 D1 GA    4   RE=    -0.08188
 AO  227 D1 GA    6   RE=    -0.05711
 AO  269 D2 GA    7   RE=    -0.17618
 AO  271 D4 GA    7   RE=     0.06966
 AO  309 D1 GA    8   RE=     0.05424
 AO  310 D2 GA    8   RE=     0.11263
 AO  351 D2 GA    9   RE=     0.05877
 AO  353 D4 GA    9   RE=     0.09589
 AO  392 D2 GA   10   RE=    -0.05619
 AO  433 D2 GA   11   RE=     0.07498
 AO  435 D4 GA   11   RE=     0.12672
 AO  474 D2 GA   12   RE=    -0.05637
 AO  556 D2 GA   14   RE=    -0.05057
 AO  719 D1 GA   18   RE=    -0.09484
 AO  761 D2 GA   19   RE=    -0.17018
 AO  763 D4 GA   19   RE=     0.09008
 AO  801 D1 GA   20   RE=     0.05131
 AO  802 D2 GA   20   RE=     0.07627
 AO 1172 D3 GA   29   RE=    -0.06164
 AO 1212 D2 GA   30   RE=    -0.08960
 AO 1254 D3 GA   31   RE=     0.05950
 AO 1294 D2 GA   32   RE=    -0.08544
 AO 1379 D5 GA   34   RE=     0.05219
 AO 1499 D2 GA   37   RE=    -0.05721
 AO 1501 D4 GA   37   RE=     0.05176
 AO 1540 D2 GA   38   RE=     0.09875
 AO 1543 D5 GA   38   RE=     0.11148
 AO 1581 D2 GA   39   RE=    -0.07039
 AO 1622 D2 GA   40   RE=     0.08490
 AO 1624 D4 GA   40   RE=    -0.07020
 AO 1625 D5 GA   40   RE=    -0.11118
 AO 1745 D2 GA   43   RE=     0.17403
 AO 1785 D1 GA   44   RE=     0.05827
 AO 1786 D2 GA   44   RE=    -0.08157
 AO 1788 D4 GA   44   RE=     0.07526
 AO 1909 D2 GA   47   RE=     0.14450
 AO 1911 D4 GA   47   RE=    -0.05515
 AO 2032 D2 GA   50   RE=     0.05601
 AO 2114 D2 GA   52   RE=     0.05606
 AO 2482 D1 GA   61   RE=    -0.29639
 AO 2483 D2 GA   61   RE=     0.18593
 AO 2485 D4 GA   61   RE=    -0.22328
 AO 2492 D1 GA   61   RE=    -0.05740
 AO 2523 D1 GA   62   RE=     0.11310
 AO 2524 D2 GA   62   RE=    -0.13177
 AO 2526 D4 GA   62   RE=     0.09944
 AO 2564 D1 GA   63   RE=     0.26149
 AO 2567 D4 GA   63   RE=     0.15446
 AO 2574 D1 GA   63   RE=     0.05049
    BAND  981    E(A.U.)=      -0.739646
 AO   65 D3 GA    2   RE=     0.07563
 AO  106 D3 GA    3   RE=    -0.28273
 AO  108 D5 GA    3   RE=     0.05478
 AO  116 D3 GA    3   RE=    -0.05544
 AO  147 D3 GA    4   RE=     0.08322
 AO  885 D3 GA   22   RE=     0.39468
 AO  887 D5 GA   22   RE=    -0.10866
 AO  895 D3 GA   22   RE=     0.07774
 AO  967 D3 GA   24   RE=     0.44253
 AO  969 D5 GA   24   RE=    -0.11688
 AO  977 D3 GA   24   RE=     0.08715
 AO 1377 D3 GA   34   RE=    -0.18172
 AO 1459 D3 GA   36   RE=    -0.20389
 AO 1461 D5 GA   36   RE=     0.05202
 AO 1498 D1 GA   37   RE=     0.09211
 AO 1501 D4 GA   37   RE=     0.06459
 AO 1502 D5 GA   37   RE=    -0.10115
 AO 1539 D1 GA   38   RE=     0.07868
 AO 1542 D4 GA   38   RE=     0.06454
 AO 1580 D1 GA   39   RE=    -0.10050
 AO 1583 D4 GA   39   RE=    -0.07297
 AO 1584 D5 GA   39   RE=    -0.11047
 AO 1621 D1 GA   40   RE=    -0.07401
 AO 1622 D2 GA   40   RE=    -0.05581
 AO 1830 D5 GA   45   RE=    -0.08368
 AO 1871 D5 GA   46   RE=    -0.06975
 AO 2154 D1 GA   53   RE=    -0.07206
 AO 2156 D3 GA   53   RE=    -0.07000
 AO 2158 D5 GA   53   RE=    -0.05173
 AO 2195 D1 GA   54   RE=    -0.07961
 AO 2198 D4 GA   54   RE=    -0.05208
 AO 2199 D5 GA   54   RE=     0.12165
 AO 2236 D1 GA   55   RE=     0.06681
 AO 2238 D3 GA   55   RE=    -0.07275
 AO 2240 D5 GA   55   RE=    -0.07228
 AO 2277 D1 GA   56   RE=     0.08718
 AO 2278 D2 GA   56   RE=    -0.06200
 AO 2279 D3 GA   56   RE=    -0.05292
 AO 2280 D4 GA   56   RE=     0.06104
 AO 2281 D5 GA   56   RE=     0.10898
 AO 2527 D5 GA   62   RE=     0.08195
 AO 2607 D3 GA   64   RE=     0.05371
 AO 2609 D5 GA   64   RE=     0.12576
    BAND  982    E(A.U.)=      -0.739630
 AO  106 D3 GA    3   RE=     0.07760
 AO  764 D5 GA   19   RE=     0.05084
 AO  885 D3 GA   22   RE=    -0.10160
 AO  967 D3 GA   24   RE=    -0.11357
 AO 1459 D3 GA   36   RE=     0.05549
 AO 1500 D3 GA   37   RE=    -0.14263
 AO 1502 D5 GA   37   RE=    -0.39749
 AO 1512 D5 GA   37   RE=    -0.07668
 AO 1543 D5 GA   38   RE=    -0.08801
 AO 1582 D3 GA   39   RE=    -0.14346
 AO 1584 D5 GA   39   RE=    -0.40004
 AO 1594 D5 GA   39   RE=    -0.07717
 AO 1625 D5 GA   40   RE=    -0.08381
 AO 2486 D5 GA   61   RE=     0.12089
 AO 2525 D3 GA   62   RE=     0.14838
 AO 2527 D5 GA   62   RE=     0.40207
 AO 2537 D5 GA   62   RE=     0.07755
 AO 2568 D5 GA   63   RE=     0.11394
 AO 2607 D3 GA   64   RE=     0.13863
 AO 2609 D5 GA   64   RE=     0.38499
 AO 2619 D5 GA   64   RE=     0.07424
    BAND  983    E(A.U.)=      -0.739579
 AO  106 D3 GA    3   RE=    -0.05235
 AO  514 D1 GA   13   RE=    -0.10319
 AO  517 D4 GA   13   RE=    -0.08135
 AO  555 D1 GA   14   RE=    -0.10009
 AO  558 D4 GA   14   RE=    -0.07254
 AO  596 D1 GA   15   RE=     0.09930
 AO  599 D4 GA   15   RE=     0.08517
 AO  637 D1 GA   16   RE=     0.09978
 AO  638 D2 GA   16   RE=    -0.05545
 AO  640 D4 GA   16   RE=     0.07349
 AO  682 D5 GA   17   RE=    -0.05234
 AO  723 D5 GA   18   RE=    -0.05646
 AO  764 D5 GA   19   RE=     0.05142
 AO  805 D5 GA   20   RE=     0.05652
 AO  885 D3 GA   22   RE=     0.21210
 AO  967 D3 GA   24   RE=     0.24302
 AO  969 D5 GA   24   RE=    -0.07635
 AO 1170 D1 GA   29   RE=    -0.07470
 AO 1173 D4 GA   29   RE=    -0.07864
 AO 1211 D1 GA   30   RE=    -0.07028
 AO 1214 D4 GA   30   RE=    -0.07857
 AO 1252 D1 GA   31   RE=     0.07998
 AO 1255 D4 GA   31   RE=     0.07631
 AO 1293 D1 GA   32   RE=     0.06406
 AO 1294 D2 GA   32   RE=    -0.05615
 AO 1296 D4 GA   32   RE=     0.09081
 AO 1377 D3 GA   34   RE=    -0.05285
 AO 1459 D3 GA   36   RE=    -0.05379
 AO 1498 D1 GA   37   RE=    -0.18853
 AO 1499 D2 GA   37   RE=    -0.08283
 AO 1501 D4 GA   37   RE=    -0.13474
 AO 1539 D1 GA   38   RE=    -0.15647
 AO 1540 D2 GA   38   RE=    -0.07677
 AO 1542 D4 GA   38   RE=    -0.12844
 AO 1580 D1 GA   39   RE=     0.19882
 AO 1581 D2 GA   39   RE=     0.06188
 AO 1583 D4 GA   39   RE=     0.14808
 AO 1621 D1 GA   40   RE=     0.15002
 AO 1622 D2 GA   40   RE=     0.10592
 AO 1624 D4 GA   40   RE=     0.10515
 AO 1830 D5 GA   45   RE=     0.06260
 AO 1871 D5 GA   46   RE=     0.07994
 AO 1912 D5 GA   47   RE=    -0.12645
 AO 1953 D5 GA   48   RE=    -0.11319
 AO 2154 D1 GA   53   RE=     0.18656
 AO 2155 D2 GA   53   RE=    -0.12324
 AO 2157 D4 GA   53   RE=     0.11442
 AO 2195 D1 GA   54   RE=     0.16960
 AO 2196 D2 GA   54   RE=    -0.12735
 AO 2198 D4 GA   54   RE=     0.10268
 AO 2199 D5 GA   54   RE=     0.07499
 AO 2236 D1 GA   55   RE=    -0.16791
 AO 2237 D2 GA   55   RE=     0.14648
 AO 2239 D4 GA   55   RE=    -0.12914
 AO 2240 D5 GA   55   RE=    -0.05128
 AO 2277 D1 GA   56   RE=    -0.17228
 AO 2278 D2 GA   56   RE=     0.14205
 AO 2280 D4 GA   56   RE=    -0.11479
    BAND  984    E(A.U.)=      -0.739519
 AO   23 D2 GA    1   RE=     0.20064
 AO   25 D4 GA    1   RE=    -0.09879
 AO  107 D4 GA    3   RE=     0.15885
 AO  145 D1 GA    4   RE=     0.12173
 AO  146 D2 GA    4   RE=     0.14643
 AO  187 D2 GA    5   RE=    -0.07011
 AO  228 D2 GA    6   RE=     0.06290
 AO  269 D2 GA    7   RE=    -0.09414
 AO  350 D1 GA    9   RE=     0.06653
 AO  351 D2 GA    9   RE=    -0.12203
 AO  353 D4 GA    9   RE=    -0.26128
 AO  363 D4 GA    9   RE=    -0.05211
 AO  432 D1 GA   11   RE=     0.11305
 AO  433 D2 GA   11   RE=    -0.16833
 AO  435 D4 GA   11   RE=    -0.34686
 AO  445 D4 GA   11   RE=    -0.06882
 AO  556 D2 GA   14   RE=    -0.05804
 AO  761 D2 GA   19   RE=    -0.05797
 AO  802 D2 GA   20   RE=     0.05101
 AO  883 D1 GA   22   RE=    -0.05027
 AO  886 D4 GA   22   RE=    -0.08658
 AO  924 D1 GA   23   RE=     0.05922
 AO  965 D1 GA   24   RE=     0.06536
 AO  968 D4 GA   24   RE=     0.07532
 AO 1129 D1 GA   28   RE=    -0.05637
 AO 1212 D2 GA   30   RE=    -0.07662
 AO 1294 D2 GA   32   RE=    -0.06655
 AO 1375 D1 GA   34   RE=     0.05995
 AO 1376 D2 GA   34   RE=     0.07900
 AO 1379 D5 GA   34   RE=    -0.13304
 AO 1457 D1 GA   36   RE=     0.06143
 AO 1461 D5 GA   36   RE=     0.06459
 AO 1498 D1 GA   37   RE=     0.05567
 AO 1540 D2 GA   38   RE=     0.07943
 AO 1622 D2 GA   40   RE=     0.05665
 AO 1624 D4 GA   40   RE=    -0.06557
 AO 1826 D1 GA   45   RE=     0.13923
 AO 1829 D4 GA   45   RE=     0.06141
 AO 1867 D1 GA   46   RE=     0.19918
 AO 1868 D2 GA   46   RE=    -0.11483
 AO 1870 D4 GA   46   RE=     0.13840
 AO 1908 D1 GA   47   RE=    -0.10968
 AO 1911 D4 GA   47   RE=    -0.06520
 AO 1949 D1 GA   48   RE=    -0.15069
 AO 1952 D4 GA   48   RE=    -0.10491
 AO 1991 D2 GA   49   RE=    -0.05908
 AO 2073 D2 GA   51   RE=    -0.07352
 AO 2155 D2 GA   53   RE=     0.05924
 AO 2158 D5 GA   53   RE=     0.09132
 AO 2196 D2 GA   54   RE=     0.08187
 AO 2199 D5 GA   54   RE=     0.10122
 AO 2236 D1 GA   55   RE=     0.06596
 AO 2240 D5 GA   55   RE=    -0.08222
 AO 2278 D2 GA   56   RE=     0.06391
 AO 2281 D5 GA   56   RE=    -0.10661
 AO 2401 D2 GA   59   RE=    -0.05552
 AO 2483 D2 GA   61   RE=     0.07028
 AO 2606 D2 GA   64   RE=    -0.06014
    BAND  985    E(A.U.)=      -0.739497
 AO  518 D5 GA   13   RE=    -0.05785
 AO  600 D5 GA   15   RE=    -0.05688
 AO 1502 D5 GA   37   RE=     0.10214
 AO 1541 D3 GA   38   RE=    -0.13926
 AO 1543 D5 GA   38   RE=    -0.35079
 AO 1553 D5 GA   38   RE=    -0.06755
 AO 1584 D5 GA   39   RE=     0.10472
 AO 1623 D3 GA   40   RE=    -0.13744
 AO 1625 D5 GA   40   RE=    -0.34462
 AO 1635 D5 GA   40   RE=    -0.06635
 AO 2484 D3 GA   61   RE=     0.15350
 AO 2486 D5 GA   61   RE=     0.46027
 AO 2496 D5 GA   61   RE=     0.08890
 AO 2501 D5 GA   61   RE=     0.05070
 AO 2527 D5 GA   62   RE=    -0.10172
 AO 2566 D3 GA   63   RE=     0.15472
 AO 2568 D5 GA   63   RE=     0.46487
 AO 2578 D5 GA   63   RE=     0.08978
 AO 2583 D5 GA   63   RE=     0.05123
 AO 2609 D5 GA   64   RE=    -0.10055
    BAND  986    E(A.U.)=      -0.739433
 AO   24 D3 GA    1   RE=     0.09887
 AO   65 D3 GA    2   RE=    -0.12473
 AO  106 D3 GA    3   RE=     0.50003
 AO  107 D4 GA    3   RE=     0.06042
 AO  108 D5 GA    3   RE=    -0.07175
 AO  116 D3 GA    3   RE=     0.09853
 AO  121 D3 GA    3   RE=     0.05529
 AO  147 D3 GA    4   RE=    -0.11747
 AO  353 D4 GA    9   RE=    -0.05481
 AO  435 D4 GA   11   RE=    -0.06343
 AO  885 D3 GA   22   RE=     0.29400
 AO  887 D5 GA   22   RE=    -0.06493
 AO  895 D3 GA   22   RE=     0.05826
 AO  967 D3 GA   24   RE=     0.29615
 AO  969 D5 GA   24   RE=    -0.08133
 AO  977 D3 GA   24   RE=     0.05850
 AO 1377 D3 GA   34   RE=     0.31000
 AO 1379 D5 GA   34   RE=    -0.06550
 AO 1387 D3 GA   34   RE=     0.05962
 AO 1459 D3 GA   36   RE=     0.33464
 AO 1461 D5 GA   36   RE=    -0.09189
 AO 1469 D3 GA   36   RE=     0.06408
 AO 1953 D5 GA   48   RE=    -0.05473
 AO 2155 D2 GA   53   RE=     0.06258
 AO 2158 D5 GA   53   RE=    -0.06300
 AO 2195 D1 GA   54   RE=    -0.07102
 AO 2196 D2 GA   54   RE=     0.05549
 AO 2198 D4 GA   54   RE=    -0.05313
 AO 2199 D5 GA   54   RE=     0.07184
 AO 2237 D2 GA   55   RE=    -0.06654
 AO 2277 D1 GA   56   RE=     0.06615
 AO 2278 D2 GA   56   RE=    -0.05736
 AO 2280 D4 GA   56   RE=     0.05302
 AO 2281 D5 GA   56   RE=     0.09481
    BAND  987    E(A.U.)=      -0.739256
 AO   22 D1 GA    1   RE=    -0.11256
 AO   23 D2 GA    1   RE=    -0.10339
 AO  146 D2 GA    4   RE=    -0.16171
 AO  148 D4 GA    4   RE=     0.05214
 AO  186 D1 GA    5   RE=    -0.08131
 AO  189 D4 GA    5   RE=    -0.06242
 AO  227 D1 GA    6   RE=    -0.07704
 AO  271 D4 GA    7   RE=     0.07810
 AO  309 D1 GA    8   RE=     0.06350
 AO  310 D2 GA    8   RE=    -0.07669
 AO  352 D3 GA    9   RE=    -0.06355
 AO  434 D3 GA   11   RE=     0.07721
 AO  435 D4 GA   11   RE=     0.05960
 AO  559 D5 GA   14   RE=     0.05041
 AO  641 D5 GA   16   RE=    -0.05075
 AO  678 D1 GA   17   RE=     0.10721
 AO  679 D2 GA   17   RE=     0.14028
 AO  720 D2 GA   18   RE=    -0.24999
 AO  722 D4 GA   18   RE=     0.11857
 AO  760 D1 GA   19   RE=    -0.13215
 AO  761 D2 GA   19   RE=    -0.18139
 AO  802 D2 GA   20   RE=     0.17085
 AO  804 D4 GA   20   RE=    -0.10920
 AO  884 D2 GA   22   RE=    -0.05117
 AO 1010 D5 GA   25   RE=     0.06724
 AO 1051 D5 GA   26   RE=    -0.08845
 AO 1092 D5 GA   27   RE=    -0.06604
 AO 1129 D1 GA   28   RE=     0.07963
 AO 1133 D5 GA   28   RE=     0.14046
 AO 1703 D1 GA   42   RE=     0.13652
 AO 1704 D2 GA   42   RE=     0.19925
 AO 1706 D4 GA   42   RE=     0.14777
 AO 1745 D2 GA   43   RE=     0.12926
 AO 1785 D1 GA   44   RE=    -0.18798
 AO 1786 D2 GA   44   RE=    -0.22124
 AO 1788 D4 GA   44   RE=    -0.11457
 AO 1826 D1 GA   45   RE=     0.11264
 AO 1829 D4 GA   45   RE=     0.06858
 AO 1867 D1 GA   46   RE=     0.07780
 AO 1868 D2 GA   46   RE=     0.08238
 AO 1908 D1 GA   47   RE=    -0.08963
 AO 1949 D1 GA   48   RE=    -0.11065
 AO 1952 D4 GA   48   RE=    -0.07100
 AO 2154 D1 GA   53   RE=    -0.05861
 AO 2158 D5 GA   53   RE=     0.08166
 AO 2199 D5 GA   54   RE=     0.07389
 AO 2240 D5 GA   55   RE=    -0.06469
 AO 2281 D5 GA   56   RE=    -0.07047
 AO 2482 D1 GA   61   RE=     0.11204
 AO 2483 D2 GA   61   RE=     0.05646
 AO 2485 D4 GA   61   RE=     0.08907
 AO 2523 D1 GA   62   RE=     0.08077
 AO 2524 D2 GA   62   RE=     0.09137
 AO 2526 D4 GA   62   RE=     0.06756
 AO 2564 D1 GA   63   RE=    -0.10792
 AO 2565 D2 GA   63   RE=    -0.05954
 AO 2567 D4 GA   63   RE=    -0.07786
 AO 2605 D1 GA   64   RE=    -0.09157
 AO 2608 D4 GA   64   RE=    -0.08509
 AO 4086  S O   146   RE=    -0.06371
    BAND  988    E(A.U.)=      -0.739094
 AO   22 D1 GA    1   RE=     0.17722
 AO   23 D2 GA    1   RE=     0.11224
 AO   64 D2 GA    2   RE=    -0.06618
 AO  104 D1 GA    3   RE=    -0.08864
 AO  106 D3 GA    3   RE=    -0.07227
 AO  146 D2 GA    4   RE=     0.21665
 AO  148 D4 GA    4   RE=    -0.08321
 AO  310 D2 GA    8   RE=     0.05028
 AO  353 D4 GA    9   RE=    -0.06387
 AO  435 D4 GA   11   RE=    -0.09023
 AO  515 D2 GA   13   RE=     0.06298
 AO  597 D2 GA   15   RE=     0.05915
 AO  678 D1 GA   17   RE=     0.11320
 AO  679 D2 GA   17   RE=     0.12661
 AO  720 D2 GA   18   RE=    -0.10239
 AO  722 D4 GA   18   RE=     0.06392
 AO  760 D1 GA   19   RE=    -0.05766
 AO  761 D2 GA   19   RE=    -0.05519
 AO  802 D2 GA   20   RE=     0.17378
 AO  804 D4 GA   20   RE=    -0.08364
 AO  843 D2 GA   21   RE=    -0.07687
 AO  883 D1 GA   22   RE=     0.05566
 AO  884 D2 GA   22   RE=     0.08847
 AO  924 D1 GA   23   RE=    -0.06219
 AO  966 D2 GA   24   RE=     0.05152
 AO 1051 D5 GA   26   RE=    -0.05804
 AO 1133 D5 GA   28   RE=     0.09141
 AO 1459 D3 GA   36   RE=    -0.05781
 AO 1663 D2 GA   41   RE=    -0.06638
 AO 1703 D1 GA   42   RE=     0.09570
 AO 1704 D2 GA   42   RE=     0.09524
 AO 1706 D4 GA   42   RE=     0.08485
 AO 1785 D1 GA   44   RE=    -0.13056
 AO 1786 D2 GA   44   RE=    -0.17175
 AO 1788 D4 GA   44   RE=    -0.08861
 AO 1826 D1 GA   45   RE=    -0.28139
 AO 1827 D2 GA   45   RE=     0.08097
 AO 1829 D4 GA   45   RE=    -0.18527
 AO 1836 D1 GA   45   RE=    -0.05457
 AO 1867 D1 GA   46   RE=    -0.12228
 AO 1868 D2 GA   46   RE=    -0.11872
 AO 1908 D1 GA   47   RE=     0.23911
 AO 1911 D4 GA   47   RE=     0.13695
 AO 1949 D1 GA   48   RE=     0.14969
 AO 1952 D4 GA   48   RE=     0.11426
 AO 2154 D1 GA   53   RE=     0.10485
 AO 2157 D4 GA   53   RE=     0.05366
 AO 2158 D5 GA   53   RE=    -0.11895
 AO 2195 D1 GA   54   RE=    -0.05207
 AO 2197 D3 GA   54   RE=    -0.05364
 AO 2199 D5 GA   54   RE=    -0.15064
 AO 2240 D5 GA   55   RE=     0.08690
 AO 2281 D5 GA   56   RE=     0.11978
 AO 2360 D2 GA   58   RE=    -0.07605
 AO 2444 D4 GA   60   RE=     0.06028
 AO 2524 D2 GA   62   RE=    -0.05390
 AO 2564 D1 GA   63   RE=    -0.05447
 AO 2567 D4 GA   63   RE=    -0.06803
 AO 2606 D2 GA   64   RE=    -0.05422
    BAND  989    E(A.U.)=      -0.739026
 AO   25 D4 GA    1   RE=    -0.05001
 AO  107 D4 GA    3   RE=     0.10262
 AO  516 D3 GA   13   RE=    -0.07422
 AO  557 D3 GA   14   RE=     0.07453
 AO  598 D3 GA   15   RE=     0.07958
 AO  639 D3 GA   16   RE=    -0.07538
 AO  883 D1 GA   22   RE=    -0.06864
 AO  925 D2 GA   23   RE=    -0.10309
 AO  927 D4 GA   23   RE=     0.06277
 AO  965 D1 GA   24   RE=     0.06558
 AO  966 D2 GA   24   RE=     0.07533
 AO  967 D3 GA   24   RE=    -0.05133
 AO 1826 D1 GA   45   RE=     0.26729
 AO 1827 D2 GA   45   RE=    -0.08660
 AO 1829 D4 GA   45   RE=     0.16418
 AO 1836 D1 GA   45   RE=     0.05174
 AO 1867 D1 GA   46   RE=    -0.34699
 AO 1868 D2 GA   46   RE=     0.06076
 AO 1870 D4 GA   46   RE=    -0.24051
 AO 1877 D1 GA   46   RE=    -0.06714
 AO 1908 D1 GA   47   RE=    -0.29132
 AO 1909 D2 GA   47   RE=     0.14660
 AO 1911 D4 GA   47   RE=    -0.19298
 AO 1918 D1 GA   47   RE=    -0.05645
 AO 1949 D1 GA   48   RE=     0.37156
 AO 1950 D2 GA   48   RE=    -0.10242
 AO 1952 D4 GA   48   RE=     0.26855
 AO 1959 D1 GA   48   RE=     0.07200
 AO 1962 D4 GA   48   RE=     0.05025
 AO 2154 D1 GA   53   RE=     0.05594
 AO 2158 D5 GA   53   RE=    -0.10404
 AO 2197 D3 GA   54   RE=     0.05431
 AO 2199 D5 GA   54   RE=     0.10066
 AO 2240 D5 GA   55   RE=     0.10700
 AO 2281 D5 GA   56   RE=    -0.10592
    BAND  990    E(A.U.)=      -0.738858
 AO   22 D1 GA    1   RE=     0.06023
 AO   64 D2 GA    2   RE=    -0.11347
 AO   66 D4 GA    2   RE=     0.07250
 AO  104 D1 GA    3   RE=    -0.09878
 AO  107 D4 GA    3   RE=     0.13121
 AO  228 D2 GA    6   RE=    -0.06542
 AO  515 D2 GA   13   RE=    -0.23556
 AO  517 D4 GA   13   RE=     0.10050
 AO  556 D2 GA   14   RE=     0.07493
 AO  597 D2 GA   15   RE=    -0.07929
 AO  638 D2 GA   16   RE=    -0.07165
 AO  640 D4 GA   16   RE=     0.05266
 AO  761 D2 GA   19   RE=    -0.05098
 AO  843 D2 GA   21   RE=     0.06233
 AO  884 D2 GA   22   RE=    -0.06883
 AO  885 D3 GA   22   RE=    -0.08659
 AO  966 D2 GA   24   RE=    -0.07659
 AO  967 D3 GA   24   RE=     0.12441
 AO 1171 D2 GA   29   RE=    -0.09034
 AO 1211 D1 GA   30   RE=    -0.05143
 AO 1253 D2 GA   31   RE=    -0.07357
 AO 1255 D4 GA   31   RE=     0.05024
 AO 1827 D2 GA   45   RE=    -0.10698
 AO 1867 D1 GA   46   RE=    -0.07404
 AO 1870 D4 GA   46   RE=    -0.10451
 AO 1908 D1 GA   47   RE=     0.10823
 AO 1911 D4 GA   47   RE=     0.07343
 AO 1912 D5 GA   47   RE=    -0.08257
 AO 1949 D1 GA   48   RE=     0.10358
 AO 1950 D2 GA   48   RE=     0.09035
 AO 1953 D5 GA   48   RE=     0.10097
 AO 2154 D1 GA   53   RE=    -0.19810
 AO 2155 D2 GA   53   RE=     0.24872
 AO 2157 D4 GA   53   RE=    -0.23108
 AO 2158 D5 GA   53   RE=    -0.09849
 AO 2195 D1 GA   54   RE=     0.27392
 AO 2196 D2 GA   54   RE=    -0.11795
 AO 2198 D4 GA   54   RE=     0.16191
 AO 2205 D1 GA   54   RE=     0.05313
 AO 2236 D1 GA   55   RE=     0.25080
 AO 2239 D4 GA   55   RE=     0.09577
 AO 2277 D1 GA   56   RE=    -0.19049
 AO 2278 D2 GA   56   RE=     0.11825
 AO 2280 D4 GA   56   RE=    -0.15411
 AO 2567 D4 GA   63   RE=     0.05701
 AO 2606 D2 GA   64   RE=     0.08298
    BAND  991    E(A.U.)=      -0.738795
 AO   64 D2 GA    2   RE=    -0.13198
 AO   66 D4 GA    2   RE=     0.08358
 AO  104 D1 GA    3   RE=    -0.09496
 AO  107 D4 GA    3   RE=     0.11208
 AO  228 D2 GA    6   RE=    -0.08826
 AO  309 D1 GA    8   RE=    -0.05945
 AO  515 D2 GA   13   RE=    -0.12665
 AO  597 D2 GA   15   RE=    -0.24723
 AO  599 D4 GA   15   RE=     0.09346
 AO  638 D2 GA   16   RE=     0.07124
 AO  761 D2 GA   19   RE=    -0.06055
 AO  843 D2 GA   21   RE=     0.08008
 AO  884 D2 GA   22   RE=    -0.11325
 AO  885 D3 GA   22   RE=     0.05626
 AO  925 D2 GA   23   RE=     0.06070
 AO  966 D2 GA   24   RE=    -0.11638
 AO  967 D3 GA   24   RE=    -0.10045
 AO 1129 D1 GA   28   RE=     0.06954
 AO 1171 D2 GA   29   RE=    -0.09828
 AO 1173 D4 GA   29   RE=     0.06008
 AO 1253 D2 GA   31   RE=    -0.10157
 AO 1293 D1 GA   32   RE=    -0.06331
 AO 1294 D2 GA   32   RE=     0.05061
 AO 1376 D2 GA   34   RE=     0.08064
 AO 1745 D2 GA   43   RE=     0.06052
 AO 1827 D2 GA   45   RE=    -0.11504
 AO 1868 D2 GA   46   RE=     0.05828
 AO 1870 D4 GA   46   RE=    -0.08920
 AO 1871 D5 GA   46   RE=     0.05722
 AO 1908 D1 GA   47   RE=     0.12410
 AO 1909 D2 GA   47   RE=    -0.06067
 AO 1911 D4 GA   47   RE=     0.08020
 AO 1912 D5 GA   47   RE=     0.07174
 AO 1950 D2 GA   48   RE=     0.11152
 AO 1953 D5 GA   48   RE=    -0.05774
 AO 2154 D1 GA   53   RE=     0.22224
 AO 2157 D4 GA   53   RE=     0.08637
 AO 2195 D1 GA   54   RE=    -0.08215
 AO 2196 D2 GA   54   RE=     0.07914
 AO 2198 D4 GA   54   RE=    -0.08937
 AO 2236 D1 GA   55   RE=    -0.23152
 AO 2237 D2 GA   55   RE=     0.26236
 AO 2239 D4 GA   55   RE=    -0.25695
 AO 2247 D2 GA   55   RE=     0.05141
 AO 2277 D1 GA   56   RE=     0.23631
 AO 2278 D2 GA   56   RE=    -0.12531
 AO 2280 D4 GA   56   RE=     0.13320
 AO 2362 D4 GA   58   RE=    -0.05380
 AO 2483 D2 GA   61   RE=    -0.05514
 AO 2524 D2 GA   62   RE=     0.05806
 AO 2567 D4 GA   63   RE=     0.07300
 AO 2606 D2 GA   64   RE=     0.10380
    BAND  992    E(A.U.)=      -0.738661
 AO   26 D5 GA    1   RE=    -0.05003
 AO  108 D5 GA    3   RE=     0.05254
 AO  149 D5 GA    4   RE=     0.05415
 AO  599 D4 GA   15   RE=     0.06053
 AO  682 D5 GA   17   RE=    -0.06657
 AO  723 D5 GA   18   RE=    -0.07384
 AO  764 D5 GA   19   RE=     0.06608
 AO  805 D5 GA   20   RE=     0.07399
 AO 1170 D1 GA   29   RE=    -0.16369
 AO 1171 D2 GA   29   RE=     0.05603
 AO 1173 D4 GA   29   RE=    -0.07566
 AO 1211 D1 GA   30   RE=    -0.15652
 AO 1212 D2 GA   30   RE=     0.09149
 AO 1214 D4 GA   30   RE=    -0.08653
 AO 1252 D1 GA   31   RE=     0.16043
 AO 1253 D2 GA   31   RE=    -0.07870
 AO 1255 D4 GA   31   RE=     0.08559
 AO 1293 D1 GA   32   RE=     0.14273
 AO 1294 D2 GA   32   RE=    -0.08683
 AO 1296 D4 GA   32   RE=     0.09050
 AO 1498 D1 GA   37   RE=    -0.08841
 AO 1499 D2 GA   37   RE=    -0.07599
 AO 1501 D4 GA   37   RE=    -0.10203
 AO 1539 D1 GA   38   RE=    -0.08129
 AO 1540 D2 GA   38   RE=    -0.08759
 AO 1542 D4 GA   38   RE=    -0.10034
 AO 1580 D1 GA   39   RE=     0.08880
 AO 1581 D2 GA   39   RE=     0.08394
 AO 1583 D4 GA   39   RE=     0.09717
 AO 1621 D1 GA   40   RE=     0.08706
 AO 1622 D2 GA   40   RE=     0.09214
 AO 1624 D4 GA   40   RE=     0.10165
 AO 1830 D5 GA   45   RE=    -0.09715
 AO 1869 D3 GA   46   RE=    -0.06220
 AO 1871 D5 GA   46   RE=    -0.14462
 AO 1910 D3 GA   47   RE=     0.05030
 AO 1912 D5 GA   47   RE=     0.12073
 AO 1953 D5 GA   48   RE=     0.05528
 AO 2154 D1 GA   53   RE=    -0.22931
 AO 2155 D2 GA   53   RE=    -0.05053
 AO 2157 D4 GA   53   RE=    -0.17174
 AO 2195 D1 GA   54   RE=    -0.26475
 AO 2196 D2 GA   54   RE=    -0.05701
 AO 2198 D4 GA   54   RE=    -0.18416
 AO 2205 D1 GA   54   RE=    -0.05129
 AO 2236 D1 GA   55   RE=     0.24692
 AO 2237 D2 GA   55   RE=     0.08648
 AO 2239 D4 GA   55   RE=     0.15636
 AO 2240 D5 GA   55   RE=     0.07406
 AO 2277 D1 GA   56   RE=     0.28749
 AO 2278 D2 GA   56   RE=     0.06403
 AO 2280 D4 GA   56   RE=     0.18866
 AO 2287 D1 GA   56   RE=     0.05576
 AO 2486 D5 GA   61   RE=    -0.07837
 AO 2527 D5 GA   62   RE=    -0.06556
 AO 2568 D5 GA   63   RE=     0.07562
 AO 2609 D5 GA   64   RE=     0.06620
    BAND  993    E(A.U.)=      -0.738610
 AO 1828 D3 GA   45   RE=    -0.09365
 AO 1830 D5 GA   45   RE=    -0.25612
 AO 1869 D3 GA   46   RE=    -0.10169
 AO 1871 D5 GA   46   RE=    -0.25530
 AO 1910 D3 GA   47   RE=    -0.10152
 AO 1912 D5 GA   47   RE=    -0.27096
 AO 1922 D5 GA   47   RE=    -0.05224
 AO 1951 D3 GA   48   RE=    -0.11106
 AO 1953 D5 GA   48   RE=    -0.28041
 AO 1963 D5 GA   48   RE=    -0.05403
 AO 2156 D3 GA   53   RE=     0.11033
 AO 2158 D5 GA   53   RE=     0.32489
 AO 2168 D5 GA   53   RE=     0.06274
 AO 2197 D3 GA   54   RE=     0.10243
 AO 2199 D5 GA   54   RE=     0.28070
 AO 2209 D5 GA   54   RE=     0.05419
 AO 2238 D3 GA   55   RE=     0.12352
 AO 2240 D5 GA   55   RE=     0.35090
 AO 2250 D5 GA   55   RE=     0.06773
 AO 2279 D3 GA   56   RE=     0.11088
 AO 2281 D5 GA   56   RE=     0.31031
 AO 2291 D5 GA   56   RE=     0.05988
    BAND  994    E(A.U.)=      -0.738587
 AO  186 D1 GA    5   RE=    -0.22289
 AO  187 D2 GA    5   RE=     0.05131
 AO  189 D4 GA    5   RE=    -0.07987
 AO  227 D1 GA    6   RE=    -0.18703
 AO  228 D2 GA    6   RE=     0.14946
 AO  230 D4 GA    6   RE=    -0.12541
 AO  268 D1 GA    7   RE=     0.23503
 AO  269 D2 GA    7   RE=    -0.05388
 AO  271 D4 GA    7   RE=     0.07412
 AO  309 D1 GA    8   RE=     0.17011
 AO  310 D2 GA    8   RE=    -0.15729
 AO  312 D4 GA    8   RE=     0.13157
 AO  518 D5 GA   13   RE=     0.06869
 AO  559 D5 GA   14   RE=     0.10756
 AO  600 D5 GA   15   RE=    -0.06802
 AO  641 D5 GA   16   RE=    -0.10671
 AO  678 D1 GA   17   RE=    -0.12521
 AO  719 D1 GA   18   RE=    -0.07530
 AO  720 D2 GA   18   RE=     0.11625
 AO  722 D4 GA   18   RE=    -0.05939
 AO  760 D1 GA   19   RE=     0.11969
 AO  801 D1 GA   20   RE=     0.07710
 AO  802 D2 GA   20   RE=    -0.11254
 AO  804 D4 GA   20   RE=     0.05996
 AO 1051 D5 GA   26   RE=     0.05447
 AO 1133 D5 GA   28   RE=    -0.08279
 AO 1502 D5 GA   37   RE=     0.13299
 AO 1543 D5 GA   38   RE=     0.11351
 AO 1584 D5 GA   39   RE=    -0.13247
 AO 1625 D5 GA   40   RE=    -0.10858
 AO 1704 D2 GA   42   RE=    -0.06987
 AO 1706 D4 GA   42   RE=    -0.06022
 AO 1786 D2 GA   44   RE=     0.09177
 AO 1788 D4 GA   44   RE=     0.05830
 AO 1826 D1 GA   45   RE=    -0.10020
 AO 1829 D4 GA   45   RE=    -0.06580
 AO 1867 D1 GA   46   RE=    -0.08047
 AO 1870 D4 GA   46   RE=    -0.06135
 AO 1908 D1 GA   47   RE=     0.12172
 AO 1911 D4 GA   47   RE=     0.07998
 AO 1949 D1 GA   48   RE=     0.09154
 AO 1994 D5 GA   49   RE=     0.11058
 AO 2035 D5 GA   50   RE=     0.07286
 AO 2076 D5 GA   51   RE=    -0.10419
 AO 2117 D5 GA   52   RE=    -0.07430
 AO 2240 D5 GA   55   RE=     0.07109
 AO 2281 D5 GA   56   RE=     0.05652
 AO 2482 D1 GA   61   RE=     0.10044
 AO 2483 D2 GA   61   RE=     0.05087
 AO 2485 D4 GA   61   RE=     0.14653
 AO 2523 D1 GA   62   RE=     0.13801
 AO 2524 D2 GA   62   RE=     0.14668
 AO 2526 D4 GA   62   RE=     0.16715
 AO 2564 D1 GA   63   RE=    -0.09566
 AO 2565 D2 GA   63   RE=    -0.06912
 AO 2567 D4 GA   63   RE=    -0.12633
 AO 2605 D1 GA   64   RE=    -0.12640
 AO 2606 D2 GA   64   RE=    -0.12791
 AO 2608 D4 GA   64   RE=    -0.17256
 AO 3870  S O   134   RE=    -0.05673
 AO 3906  S O   136   RE=     0.05613
    BAND  995    E(A.U.)=      -0.738511
 AO  106 D3 GA    3   RE=     0.05216
 AO  885 D3 GA   22   RE=    -0.11582
 AO  967 D3 GA   24   RE=    -0.16919
 AO  969 D5 GA   24   RE=     0.05023
 AO 1828 D3 GA   45   RE=    -0.11246
 AO 1830 D5 GA   45   RE=    -0.30433
 AO 1840 D5 GA   45   RE=    -0.05870
 AO 1869 D3 GA   46   RE=     0.09085
 AO 1871 D5 GA   46   RE=     0.23980
 AO 1910 D3 GA   47   RE=    -0.09914
 AO 1912 D5 GA   47   RE=    -0.26191
 AO 1922 D5 GA   47   RE=    -0.05034
 AO 1951 D3 GA   48   RE=     0.09919
 AO 1953 D5 GA   48   RE=     0.25783
 AO 2156 D3 GA   53   RE=    -0.08477
 AO 2158 D5 GA   53   RE=    -0.28529
 AO 2168 D5 GA   53   RE=    -0.05510
 AO 2195 D1 GA   54   RE=    -0.05884
 AO 2197 D3 GA   54   RE=     0.12721
 AO 2199 D5 GA   54   RE=     0.29414
 AO 2209 D5 GA   54   RE=     0.05668
 AO 2238 D3 GA   55   RE=    -0.09278
 AO 2240 D5 GA   55   RE=    -0.31448
 AO 2250 D5 GA   55   RE=    -0.06075
 AO 2277 D1 GA   56   RE=     0.06329
 AO 2279 D3 GA   56   RE=     0.13395
 AO 2281 D5 GA   56   RE=     0.31921
 AO 2291 D5 GA   56   RE=     0.06150
    BAND  996    E(A.U.)=      -0.738317
 AO  352 D3 GA    9   RE=    -0.45966
 AO  354 D5 GA    9   RE=     0.10913
 AO  362 D3 GA    9   RE=    -0.09049
 AO  367 D3 GA    9   RE=    -0.05170
 AO  433 D2 GA   11   RE=    -0.08454
 AO  434 D3 GA   11   RE=     0.59901
 AO  436 D5 GA   11   RE=    -0.13580
 AO  444 D3 GA   11   RE=     0.11791
 AO  449 D3 GA   11   RE=     0.06651
 AO  720 D2 GA   18   RE=     0.05589
 AO  761 D2 GA   19   RE=     0.06032
 AO 1662 D1 GA   41   RE=     0.15202
 AO 1665 D4 GA   41   RE=     0.12197
 AO 1703 D1 GA   42   RE=    -0.12025
 AO 1706 D4 GA   42   RE=    -0.10126
 AO 1744 D1 GA   43   RE=    -0.20378
 AO 1745 D2 GA   43   RE=    -0.05254
 AO 1747 D4 GA   43   RE=    -0.11537
 AO 1785 D1 GA   44   RE=     0.13498
 AO 1786 D2 GA   44   RE=    -0.09049
 AO 1788 D4 GA   44   RE=     0.12336
    BAND  997    E(A.U.)=      -0.738027
 AO  186 D1 GA    5   RE=    -0.05770
 AO  187 D2 GA    5   RE=    -0.28716
 AO  189 D4 GA    5   RE=     0.11486
 AO  197 D2 GA    5   RE=    -0.05615
 AO  227 D1 GA    6   RE=     0.14256
 AO  228 D2 GA    6   RE=     0.25353
 AO  230 D4 GA    6   RE=    -0.07813
 AO  268 D1 GA    7   RE=     0.05998
 AO  269 D2 GA    7   RE=     0.30396
 AO  271 D4 GA    7   RE=    -0.11995
 AO  279 D2 GA    7   RE=     0.05951
 AO  309 D1 GA    8   RE=    -0.12905
 AO  310 D2 GA    8   RE=    -0.24652
 AO  312 D4 GA    8   RE=     0.07322
 AO  518 D5 GA   13   RE=    -0.12103
 AO  559 D5 GA   14   RE=     0.08511
 AO  600 D5 GA   15   RE=     0.12306
 AO  641 D5 GA   16   RE=    -0.08541
 AO 1543 D5 GA   38   RE=    -0.06724
 AO 1625 D5 GA   40   RE=     0.06627
 AO 2482 D1 GA   61   RE=    -0.16992
 AO 2483 D2 GA   61   RE=    -0.22056
 AO 2485 D4 GA   61   RE=    -0.16830
 AO 2523 D1 GA   62   RE=     0.11687
 AO 2524 D2 GA   62   RE=     0.16383
 AO 2526 D4 GA   62   RE=     0.10663
 AO 2564 D1 GA   63   RE=     0.17468
 AO 2565 D2 GA   63   RE=     0.22040
 AO 2567 D4 GA   63   RE=     0.16880
 AO 2605 D1 GA   64   RE=    -0.11542
 AO 2606 D2 GA   64   RE=    -0.16597
 AO 2608 D4 GA   64   RE=    -0.10393
 AO 3330  S O   104   RE=    -0.05116
 AO 3852  S O   133   RE=     0.06890
 AO 3888  S O   135   RE=    -0.06573
 AO 3906  S O   136   RE=     0.05064
    BAND  998    E(A.U.)=      -0.737914
 AO   23 D2 GA    1   RE=    -0.09887
 AO   64 D2 GA    2   RE=    -0.07223
 AO  104 D1 GA    3   RE=    -0.07546
 AO  107 D4 GA    3   RE=    -0.08248
 AO  145 D1 GA    4   RE=    -0.11617
 AO  146 D2 GA    4   RE=    -0.06798
 AO  187 D2 GA    5   RE=     0.09251
 AO  227 D1 GA    6   RE=     0.05200
 AO  269 D2 GA    7   RE=     0.07225
 AO  309 D1 GA    8   RE=     0.08016
 AO  350 D1 GA    9   RE=    -0.05149
 AO  351 D2 GA    9   RE=    -0.07255
 AO  353 D4 GA    9   RE=    -0.07308
 AO  432 D1 GA   11   RE=     0.25585
 AO  433 D2 GA   11   RE=    -0.14495
 AO  435 D4 GA   11   RE=    -0.21961
 AO  442 D1 GA   11   RE=     0.05049
 AO  473 D1 GA   12   RE=     0.08324
 AO  474 D2 GA   12   RE=    -0.08427
 AO  476 D4 GA   12   RE=     0.05154
 AO  719 D1 GA   18   RE=     0.05340
 AO  760 D1 GA   19   RE=     0.06811
 AO  761 D2 GA   19   RE=     0.06257
 AO  801 D1 GA   20   RE=     0.06020
 AO  843 D2 GA   21   RE=    -0.10452
 AO  845 D4 GA   21   RE=     0.09603
 AO  883 D1 GA   22   RE=     0.16382
 AO  884 D2 GA   22   RE=    -0.14215
 AO  886 D4 GA   22   RE=     0.09110
 AO  924 D1 GA   23   RE=    -0.12976
 AO  965 D1 GA   24   RE=    -0.05399
 AO  966 D2 GA   24   RE=    -0.11852
 AO  968 D4 GA   24   RE=    -0.10429
 AO 1088 D1 GA   27   RE=    -0.05044
 AO 1170 D1 GA   29   RE=    -0.05926
 AO 1171 D2 GA   29   RE=    -0.16677
 AO 1173 D4 GA   29   RE=     0.06627
 AO 1174 D5 GA   29   RE=    -0.05617
 AO 1212 D2 GA   30   RE=    -0.05712
 AO 1253 D2 GA   31   RE=    -0.05105
 AO 1256 D5 GA   31   RE=     0.05847
 AO 1294 D2 GA   32   RE=    -0.17998
 AO 1296 D4 GA   32   RE=     0.07562
 AO 1375 D1 GA   34   RE=    -0.15099
 AO 1379 D5 GA   34   RE=     0.17138
 AO 1457 D1 GA   36   RE=    -0.15405
 AO 1458 D2 GA   36   RE=     0.05733
 AO 1461 D5 GA   36   RE=    -0.06964
 AO 1499 D2 GA   37   RE=     0.10086
 AO 1542 D4 GA   38   RE=    -0.05085
 AO 1583 D4 GA   39   RE=    -0.06593
 AO 1622 D2 GA   40   RE=     0.08671
 AO 1745 D2 GA   43   RE=    -0.05547
 AO 1786 D2 GA   44   RE=     0.05050
 AO 1826 D1 GA   45   RE=     0.09617
 AO 1827 D2 GA   45   RE=     0.08549
 AO 1829 D4 GA   45   RE=     0.08387
 AO 1868 D2 GA   46   RE=     0.05013
 AO 1911 D4 GA   47   RE=    -0.09514
 AO 2114 D2 GA   52   RE=     0.06621
 AO 2196 D2 GA   54   RE=    -0.05472
 AO 2237 D2 GA   55   RE=     0.05664
 AO 2240 D5 GA   55   RE=     0.06831
 AO 2281 D5 GA   56   RE=     0.07152
 AO 2400 D1 GA   59   RE=    -0.05892
 AO 2401 D2 GA   59   RE=     0.08091
 AO 2403 D4 GA   59   RE=     0.09711
    BAND  999    E(A.U.)=      -0.737864
 AO  350 D1 GA    9   RE=     0.10733
 AO  353 D4 GA    9   RE=    -0.05850
 AO  392 D2 GA   10   RE=    -0.05768
 AO  432 D1 GA   11   RE=    -0.07759
 AO  558 D4 GA   14   RE=    -0.05085
 AO  682 D5 GA   17   RE=    -0.09961
 AO  723 D5 GA   18   RE=     0.10118
 AO  764 D5 GA   19   RE=     0.09898
 AO  805 D5 GA   20   RE=    -0.10156
 AO  883 D1 GA   22   RE=     0.06451
 AO 1170 D1 GA   29   RE=     0.09117
 AO 1171 D2 GA   29   RE=     0.22506
 AO 1173 D4 GA   29   RE=    -0.08487
 AO 1211 D1 GA   30   RE=    -0.11266
 AO 1212 D2 GA   30   RE=    -0.30717
 AO 1214 D4 GA   30   RE=     0.12060
 AO 1222 D2 GA   30   RE=    -0.06023
 AO 1252 D1 GA   31   RE=    -0.11242
 AO 1253 D2 GA   31   RE=    -0.31879
 AO 1255 D4 GA   31   RE=     0.12214
 AO 1263 D2 GA   31   RE=    -0.06258
 AO 1293 D1 GA   32   RE=     0.08174
 AO 1294 D2 GA   32   RE=     0.23338
 AO 1296 D4 GA   32   RE=    -0.08549
 AO 1498 D1 GA   37   RE=    -0.12901
 AO 1499 D2 GA   37   RE=    -0.15715
 AO 1501 D4 GA   37   RE=    -0.12526
 AO 1539 D1 GA   38   RE=     0.09570
 AO 1540 D2 GA   38   RE=     0.19310
 AO 1542 D4 GA   38   RE=     0.08947
 AO 1580 D1 GA   39   RE=     0.11507
 AO 1581 D2 GA   39   RE=     0.20317
 AO 1583 D4 GA   39   RE=     0.09304
 AO 1621 D1 GA   40   RE=    -0.10190
 AO 1622 D2 GA   40   RE=    -0.15484
 AO 1624 D4 GA   40   RE=    -0.11508
 AO 2486 D5 GA   61   RE=     0.06697
 AO 2527 D5 GA   62   RE=    -0.05795
 AO 2568 D5 GA   63   RE=    -0.06623
 AO 2609 D5 GA   64   RE=     0.05940
 AO 4302  S O   158   RE=    -0.06525
 AO 4320  S O   159   RE=    -0.06566
 AO 4338  S O   160   RE=     0.05174
    BAND 1000    E(A.U.)=      -0.737770
 AO   22 D1 GA    1   RE=    -0.08127
 AO   23 D2 GA    1   RE=    -0.11810
 AO  105 D2 GA    3   RE=    -0.07084
 AO  107 D4 GA    3   RE=    -0.06713
 AO  146 D2 GA    4   RE=    -0.14729
 AO  228 D2 GA    6   RE=    -0.08972
 AO  268 D1 GA    7   RE=    -0.07699
 AO  350 D1 GA    9   RE=    -0.11268
 AO  392 D2 GA   10   RE=     0.05263
 AO  432 D1 GA   11   RE=     0.24543
 AO  433 D2 GA   11   RE=    -0.09185
 AO  435 D4 GA   11   RE=    -0.10021
 AO  473 D1 GA   12   RE=     0.07151
 AO  474 D2 GA   12   RE=    -0.09140
 AO  476 D4 GA   12   RE=     0.06946
 AO  515 D2 GA   13   RE=     0.08891
 AO  597 D2 GA   15   RE=     0.05874
 AO  637 D1 GA   16   RE=     0.06357
 AO  720 D2 GA   18   RE=    -0.05863
 AO  802 D2 GA   20   RE=    -0.08188
 AO  842 D1 GA   21   RE=    -0.15525
 AO  843 D2 GA   21   RE=     0.06609
 AO  845 D4 GA   21   RE=    -0.06528
 AO  883 D1 GA   22   RE=    -0.19522
 AO  884 D2 GA   22   RE=    -0.07645
 AO  886 D4 GA   22   RE=    -0.09274
 AO  924 D1 GA   23   RE=     0.06786
 AO  925 D2 GA   23   RE=    -0.18387
 AO  927 D4 GA   23   RE=     0.12726
 AO  965 D1 GA   24   RE=     0.18721
 AO  966 D2 GA   24   RE=    -0.07299
 AO  968 D4 GA   24   RE=     0.12244
 AO 1047 D1 GA   26   RE=     0.05730
 AO 1088 D1 GA   27   RE=    -0.05004
 AO 1129 D1 GA   28   RE=     0.08621
 AO 1171 D2 GA   29   RE=     0.10111
 AO 1174 D5 GA   29   RE=     0.09793
 AO 1212 D2 GA   30   RE=    -0.10518
 AO 1256 D5 GA   31   RE=    -0.10009
 AO 1293 D1 GA   32   RE=     0.07677
 AO 1581 D2 GA   39   RE=     0.05931
 AO 1744 D1 GA   43   RE=    -0.05559
 AO 1786 D2 GA   44   RE=     0.08885
 AO 1826 D1 GA   45   RE=    -0.13453
 AO 1829 D4 GA   45   RE=    -0.19829
 AO 1908 D1 GA   47   RE=     0.11851
 AO 1909 D2 GA   47   RE=     0.18592
 AO 1911 D4 GA   47   RE=     0.10825
 AO 1950 D2 GA   48   RE=     0.05619
 AO 1952 D4 GA   48   RE=     0.07053
 AO 1993 D4 GA   49   RE=    -0.05943
 AO 2114 D2 GA   52   RE=     0.05011
 AO 2116 D4 GA   52   RE=     0.07437
 AO 2158 D5 GA   53   RE=     0.07189
 AO 2199 D5 GA   54   RE=     0.06743
 AO 2239 D4 GA   55   RE=     0.06817
 AO 2240 D5 GA   55   RE=    -0.08570
 AO 2281 D5 GA   56   RE=    -0.10150
 AO 4176  S O   151   RE=    -0.05872
    BAND 1001    E(A.U.)=      -0.737687
 AO   22 D1 GA    1   RE=    -0.05178
 AO   64 D2 GA    2   RE=     0.05939
 AO  106 D3 GA    3   RE=    -0.05627
 AO  107 D4 GA    3   RE=    -0.06828
 AO  146 D2 GA    4   RE=    -0.06669
 AO  186 D1 GA    5   RE=     0.09530
 AO  187 D2 GA    5   RE=     0.14854
 AO  189 D4 GA    5   RE=    -0.05882
 AO  227 D1 GA    6   RE=     0.05496
 AO  228 D2 GA    6   RE=     0.10123
 AO  231 D5 GA    6   RE=     0.06241
 AO  268 D1 GA    7   RE=     0.06495
 AO  269 D2 GA    7   RE=     0.12205
 AO  271 D4 GA    7   RE=    -0.05299
 AO  309 D1 GA    8   RE=     0.05097
 AO  310 D2 GA    8   RE=     0.14374
 AO  312 D4 GA    8   RE=    -0.05907
 AO  313 D5 GA    8   RE=    -0.06259
 AO  350 D1 GA    9   RE=     0.21900
 AO  353 D4 GA    9   RE=    -0.09100
 AO  391 D1 GA   10   RE=     0.10504
 AO  392 D2 GA   10   RE=    -0.10814
 AO  394 D4 GA   10   RE=     0.06708
 AO  432 D1 GA   11   RE=    -0.23953
 AO  474 D2 GA   12   RE=     0.09420
 AO  476 D4 GA   12   RE=    -0.07718
 AO  596 D1 GA   15   RE=    -0.06693
 AO  637 D1 GA   16   RE=    -0.05951
 AO  638 D2 GA   16   RE=     0.08013
 AO  678 D1 GA   17   RE=     0.05988
 AO  719 D1 GA   18   RE=     0.07193
 AO  801 D1 GA   20   RE=     0.07078
 AO  842 D1 GA   21   RE=    -0.07794
 AO  843 D2 GA   21   RE=     0.06753
 AO  845 D4 GA   21   RE=    -0.05341
 AO  883 D1 GA   22   RE=    -0.12171
 AO  884 D2 GA   22   RE=    -0.05518
 AO  886 D4 GA   22   RE=    -0.06624
 AO  924 D1 GA   23   RE=     0.07167
 AO  925 D2 GA   23   RE=    -0.11333
 AO  927 D4 GA   23   RE=     0.07437
 AO  965 D1 GA   24   RE=     0.13882
 AO  968 D4 GA   24   RE=     0.07464
 AO 1047 D1 GA   26   RE=    -0.05368
 AO 1129 D1 GA   28   RE=    -0.07441
 AO 1170 D1 GA   29   RE=    -0.06227
 AO 1171 D2 GA   29   RE=    -0.20048
 AO 1173 D4 GA   29   RE=     0.08033
 AO 1174 D5 GA   29   RE=     0.06796
 AO 1212 D2 GA   30   RE=    -0.06844
 AO 1253 D2 GA   31   RE=    -0.10379
 AO 1256 D5 GA   31   RE=    -0.06797
 AO 1293 D1 GA   32   RE=    -0.07168
 AO 1294 D2 GA   32   RE=    -0.17648
 AO 1296 D4 GA   32   RE=     0.07370
 AO 1375 D1 GA   34   RE=    -0.08905
 AO 1457 D1 GA   36   RE=    -0.05335
 AO 1499 D2 GA   37   RE=     0.09783
 AO 1542 D4 GA   38   RE=    -0.06534
 AO 1583 D4 GA   39   RE=    -0.06577
 AO 1622 D2 GA   40   RE=     0.08147
 AO 1664 D3 GA   41   RE=    -0.06331
 AO 1746 D3 GA   43   RE=     0.06823
 AO 1748 D5 GA   43   RE=     0.05994
 AO 1826 D1 GA   45   RE=    -0.06400
 AO 1827 D2 GA   45   RE=    -0.10913
 AO 1829 D4 GA   45   RE=    -0.08357
 AO 1908 D1 GA   47   RE=     0.09805
 AO 1909 D2 GA   47   RE=     0.05293
 AO 1911 D4 GA   47   RE=     0.12047
 AO 2032 D2 GA   50   RE=     0.09288
 AO 2034 D4 GA   50   RE=     0.05308
 AO 2113 D1 GA   52   RE=    -0.06041
 AO 2116 D4 GA   52   RE=    -0.07598
 AO 2158 D5 GA   53   RE=     0.05436
 AO 2198 D4 GA   54   RE=     0.05481
 AO 2199 D5 GA   54   RE=     0.05777
 AO 2240 D5 GA   55   RE=    -0.06796
 AO 2277 D1 GA   56   RE=    -0.05113
 AO 2281 D5 GA   56   RE=    -0.06877
 AO 2362 D4 GA   58   RE=     0.05436
 AO 2482 D1 GA   61   RE=     0.05492
 AO 2483 D2 GA   61   RE=    -0.05973
 AO 2524 D2 GA   62   RE=    -0.05628
 AO 2565 D2 GA   63   RE=    -0.06671
    BAND 1002    E(A.U.)=      -0.737590
 AO   64 D2 GA    2   RE=     0.11904
 AO   66 D4 GA    2   RE=    -0.06859
 AO  104 D1 GA    3   RE=     0.07930
 AO  105 D2 GA    3   RE=     0.10036
 AO  106 D3 GA    3   RE=     0.09338
 AO  186 D1 GA    5   RE=     0.09186
 AO  187 D2 GA    5   RE=     0.08981
 AO  228 D2 GA    6   RE=     0.13864
 AO  231 D5 GA    6   RE=    -0.06928
 AO  268 D1 GA    7   RE=     0.08405
 AO  269 D2 GA    7   RE=     0.09148
 AO  310 D2 GA    8   RE=     0.14395
 AO  312 D4 GA    8   RE=    -0.05293
 AO  313 D5 GA    8   RE=     0.06826
 AO  350 D1 GA    9   RE=    -0.30098
 AO  351 D2 GA    9   RE=     0.08408
 AO  353 D4 GA    9   RE=     0.12324
 AO  360 D1 GA    9   RE=    -0.05949
 AO  391 D1 GA   10   RE=    -0.07722
 AO  392 D2 GA   10   RE=     0.15072
 AO  394 D4 GA   10   RE=    -0.10224
 AO  432 D1 GA   11   RE=     0.17044
 AO  433 D2 GA   11   RE=     0.08047
 AO  474 D2 GA   12   RE=    -0.08025
 AO  514 D1 GA   13   RE=    -0.10794
 AO  555 D1 GA   14   RE=    -0.15329
 AO  556 D2 GA   14   RE=     0.11766
 AO  558 D4 GA   14   RE=    -0.06674
 AO  596 D1 GA   15   RE=     0.07256
 AO  597 D2 GA   15   RE=    -0.08025
 AO  761 D2 GA   19   RE=    -0.06308
 AO  802 D2 GA   20   RE=     0.06795
 AO  843 D2 GA   21   RE=     0.06916
 AO  883 D1 GA   22   RE=    -0.05090
 AO  884 D2 GA   22   RE=     0.09377
 AO  924 D1 GA   23   RE=     0.08215
 AO  966 D2 GA   24   RE=     0.08447
 AO 1006 D1 GA   25   RE=     0.06475
 AO 1129 D1 GA   28   RE=    -0.09977
 AO 1171 D2 GA   29   RE=    -0.10717
 AO 1211 D1 GA   30   RE=    -0.05237
 AO 1212 D2 GA   30   RE=    -0.07217
 AO 1252 D1 GA   31   RE=    -0.07152
 AO 1253 D2 GA   31   RE=    -0.10604
 AO 1293 D1 GA   32   RE=    -0.12537
 AO 1377 D3 GA   34   RE=    -0.05789
 AO 1458 D2 GA   36   RE=    -0.06367
 AO 1459 D3 GA   36   RE=    -0.06025
 AO 1540 D2 GA   38   RE=     0.05530
 AO 1624 D4 GA   40   RE=    -0.06817
 AO 1664 D3 GA   41   RE=     0.07106
 AO 1744 D1 GA   43   RE=     0.06296
 AO 1746 D3 GA   43   RE=    -0.07647
 AO 1748 D5 GA   43   RE=    -0.06403
 AO 1786 D2 GA   44   RE=    -0.10652
 AO 1789 D5 GA   44   RE=    -0.06681
 AO 1827 D2 GA   45   RE=    -0.10186
 AO 1830 D5 GA   45   RE=     0.05307
 AO 1871 D5 GA   46   RE=     0.05516
 AO 1909 D2 GA   47   RE=    -0.07440
 AO 1911 D4 GA   47   RE=     0.07297
 AO 1912 D5 GA   47   RE=    -0.05428
 AO 1953 D5 GA   48   RE=    -0.05335
 AO 2031 D1 GA   50   RE=    -0.05004
 AO 2032 D2 GA   50   RE=    -0.06449
 AO 2034 D4 GA   50   RE=    -0.09490
 AO 2075 D4 GA   51   RE=     0.05412
 AO 2114 D2 GA   52   RE=     0.08268
 AO 2157 D4 GA   53   RE=    -0.08213
 AO 2195 D1 GA   54   RE=    -0.07202
 AO 2198 D4 GA   54   RE=    -0.06203
 AO 2278 D2 GA   56   RE=     0.05414
 AO 2280 D4 GA   56   RE=     0.07082
 AO 2483 D2 GA   61   RE=    -0.08071
 AO 2486 D5 GA   61   RE=     0.05173
 AO 2565 D2 GA   63   RE=    -0.07830
 AO 2568 D5 GA   63   RE=    -0.05299
 AO 3942  S O   138   RE=     0.05151
    BAND 1003    E(A.U.)=      -0.737452
 AO   26 D5 GA    1   RE=     0.05069
 AO   67 D5 GA    2   RE=     0.10491
 AO  108 D5 GA    3   RE=    -0.06523
 AO  149 D5 GA    4   RE=    -0.10956
 AO  350 D1 GA    9   RE=    -0.15447
 AO  353 D4 GA    9   RE=     0.06401
 AO  392 D2 GA   10   RE=     0.08128
 AO  394 D4 GA   10   RE=    -0.05383
 AO  432 D1 GA   11   RE=     0.12712
 AO  474 D2 GA   12   RE=    -0.05136
 AO  514 D1 GA   13   RE=     0.20671
 AO  515 D2 GA   13   RE=    -0.05653
 AO  517 D4 GA   13   RE=     0.07779
 AO  555 D1 GA   14   RE=     0.14002
 AO  556 D2 GA   14   RE=    -0.14333
 AO  558 D4 GA   14   RE=     0.10050
 AO  596 D1 GA   15   RE=    -0.21506
 AO  599 D4 GA   15   RE=    -0.06158
 AO  637 D1 GA   16   RE=    -0.19650
 AO  638 D2 GA   16   RE=     0.16675
 AO  640 D4 GA   16   RE=    -0.10591
 AO  682 D5 GA   17   RE=    -0.06758
 AO  764 D5 GA   19   RE=     0.06686
 AO 1170 D1 GA   29   RE=    -0.12891
 AO 1171 D2 GA   29   RE=     0.08755
 AO 1173 D4 GA   29   RE=    -0.05163
 AO 1211 D1 GA   30   RE=    -0.16921
 AO 1252 D1 GA   31   RE=     0.11611
 AO 1253 D2 GA   31   RE=    -0.13703
 AO 1255 D4 GA   31   RE=     0.06272
 AO 1293 D1 GA   32   RE=     0.11550
 AO 1499 D2 GA   37   RE=    -0.07350
 AO 1501 D4 GA   37   RE=    -0.06951
 AO 1581 D2 GA   39   RE=     0.07456
 AO 1583 D4 GA   39   RE=     0.06567
 AO 1830 D5 GA   45   RE=    -0.13022
 AO 1871 D5 GA   46   RE=    -0.11863
 AO 1912 D5 GA   47   RE=     0.14030
 AO 1953 D5 GA   48   RE=     0.12014
 AO 2157 D4 GA   53   RE=     0.08867
 AO 2195 D1 GA   54   RE=     0.11104
 AO 2196 D2 GA   54   RE=     0.13781
 AO 2198 D4 GA   54   RE=     0.14616
 AO 2236 D1 GA   55   RE=    -0.05474
 AO 2239 D4 GA   55   RE=    -0.11279
 AO 2277 D1 GA   56   RE=    -0.11891
 AO 2278 D2 GA   56   RE=    -0.12383
 AO 2280 D4 GA   56   RE=    -0.15314
 AO 2486 D5 GA   61   RE=    -0.10660
 AO 2527 D5 GA   62   RE=    -0.11617
 AO 2568 D5 GA   63   RE=     0.10723
 AO 2609 D5 GA   64   RE=     0.11565
 AO 4014  S O   142   RE=    -0.05168
 AO 4050  S O   144   RE=     0.05676
    BAND 1004    E(A.U.)=      -0.737358
 AO   24 D3 GA    1   RE=    -0.14443
 AO   26 D5 GA    1   RE=     0.09596
 AO   64 D2 GA    2   RE=     0.07496
 AO   65 D3 GA    2   RE=    -0.10270
 AO  106 D3 GA    3   RE=    -0.49020
 AO  108 D5 GA    3   RE=     0.06496
 AO  116 D3 GA    3   RE=    -0.09621
 AO  121 D3 GA    3   RE=    -0.05307
 AO  145 D1 GA    4   RE=    -0.05418
 AO  147 D3 GA    4   RE=    -0.09638
 AO  149 D5 GA    4   RE=     0.06152
 AO  350 D1 GA    9   RE=    -0.06848
 AO  392 D2 GA   10   RE=     0.05685
 AO  432 D1 GA   11   RE=     0.06238
 AO  515 D2 GA   13   RE=    -0.11839
 AO  555 D1 GA   14   RE=     0.06612
 AO  556 D2 GA   14   RE=     0.16719
 AO  558 D4 GA   14   RE=    -0.05802
 AO  596 D1 GA   15   RE=     0.06730
 AO  597 D2 GA   15   RE=     0.12041
 AO  638 D2 GA   16   RE=    -0.06755
 AO 1212 D2 GA   30   RE=     0.05735
 AO 1375 D1 GA   34   RE=    -0.06746
 AO 1377 D3 GA   34   RE=     0.36009
 AO 1387 D3 GA   34   RE=     0.06995
 AO 1459 D3 GA   36   RE=     0.36713
 AO 1461 D5 GA   36   RE=    -0.08787
 AO 1469 D3 GA   36   RE=     0.07120
 AO 2154 D1 GA   53   RE=     0.05365
 AO 2155 D2 GA   53   RE=     0.05679
 AO 2157 D4 GA   53   RE=     0.05137
 AO 2195 D1 GA   54   RE=    -0.08851
 AO 2196 D2 GA   54   RE=    -0.11779
 AO 2198 D4 GA   54   RE=    -0.05811
 AO 2236 D1 GA   55   RE=    -0.06201
 AO 2237 D2 GA   55   RE=    -0.05079
 AO 2239 D4 GA   55   RE=    -0.07822
 AO 2277 D1 GA   56   RE=     0.05338
 AO 2278 D2 GA   56   RE=     0.05638
 AO 2280 D4 GA   56   RE=     0.06348
 AO 2402 D3 GA   59   RE=    -0.05539
    BAND 1005    E(A.U.)=      -0.737206
 AO   63 D1 GA    2   RE=     0.05663
 AO   64 D2 GA    2   RE=    -0.14628
 AO   66 D4 GA    2   RE=     0.06420
 AO  105 D2 GA    3   RE=    -0.09489
 AO  106 D3 GA    3   RE=    -0.11988
 AO  145 D1 GA    4   RE=     0.12612
 AO  146 D2 GA    4   RE=    -0.06810
 AO  148 D4 GA    4   RE=     0.07188
 AO  186 D1 GA    5   RE=    -0.05282
 AO  187 D2 GA    5   RE=     0.13936
 AO  227 D1 GA    6   RE=     0.09126
 AO  228 D2 GA    6   RE=     0.05260
 AO  268 D1 GA    7   RE=    -0.05105
 AO  269 D2 GA    7   RE=     0.14305
 AO  309 D1 GA    8   RE=     0.09121
 AO  353 D4 GA    9   RE=     0.06090
 AO  435 D4 GA   11   RE=     0.11950
 AO  514 D1 GA   13   RE=    -0.11376
 AO  556 D2 GA   14   RE=    -0.11536
 AO  596 D1 GA   15   RE=    -0.08190
 AO  597 D2 GA   15   RE=     0.06522
 AO  637 D1 GA   16   RE=    -0.07848
 AO  638 D2 GA   16   RE=    -0.20444
 AO  640 D4 GA   16   RE=     0.05907
 AO  720 D2 GA   18   RE=    -0.14661
 AO  802 D2 GA   20   RE=    -0.14364
 AO  884 D2 GA   22   RE=     0.10591
 AO  924 D1 GA   23   RE=    -0.06403
 AO  925 D2 GA   23   RE=     0.09971
 AO  965 D1 GA   24   RE=    -0.09221
 AO  966 D2 GA   24   RE=     0.08659
 AO 1007 D2 GA   25   RE=     0.05191
 AO 1047 D1 GA   26   RE=     0.12264
 AO 1129 D1 GA   28   RE=     0.18593
 AO 1170 D1 GA   29   RE=    -0.15108
 AO 1212 D2 GA   30   RE=    -0.12889
 AO 1252 D1 GA   31   RE=    -0.14674
 AO 1294 D2 GA   32   RE=    -0.14324
 AO 1375 D1 GA   34   RE=     0.19267
 AO 1376 D2 GA   34   RE=     0.06846
 AO 1377 D3 GA   34   RE=     0.06560
 AO 1379 D5 GA   34   RE=    -0.11993
 AO 1457 D1 GA   36   RE=     0.16452
 AO 1459 D3 GA   36   RE=     0.12830
 AO 1499 D2 GA   37   RE=     0.05719
 AO 1539 D1 GA   38   RE=    -0.05525
 AO 1581 D2 GA   39   RE=     0.05549
 AO 1621 D1 GA   40   RE=    -0.05297
 AO 1704 D2 GA   42   RE=     0.06617
 AO 1786 D2 GA   44   RE=     0.09058
 AO 1826 D1 GA   45   RE=     0.05408
 AO 1868 D2 GA   46   RE=    -0.06696
 AO 1870 D4 GA   46   RE=     0.08547
 AO 1909 D2 GA   47   RE=    -0.06327
 AO 1950 D2 GA   48   RE=    -0.06559
 AO 1952 D4 GA   48   RE=     0.08214
 AO 1993 D4 GA   49   RE=    -0.06812
 AO 2075 D4 GA   51   RE=    -0.06500
 AO 2196 D2 GA   54   RE=     0.05600
 AO 2277 D1 GA   56   RE=     0.06534
 AO 2278 D2 GA   56   RE=     0.12180
 AO 2403 D4 GA   59   RE=    -0.05699
 AO 2482 D1 GA   61   RE=     0.06244
 AO 2524 D2 GA   62   RE=    -0.07913
 AO 2564 D1 GA   63   RE=     0.07187
 AO 2606 D2 GA   64   RE=    -0.08444
    BAND 1006    E(A.U.)=      -0.737081
 AO   23 D2 GA    1   RE=     0.17356
 AO   25 D4 GA    1   RE=    -0.11716
 AO   63 D1 GA    2   RE=    -0.13444
 AO   64 D2 GA    2   RE=    -0.07952
 AO  105 D2 GA    3   RE=    -0.21408
 AO  146 D2 GA    4   RE=     0.16456
 AO  187 D2 GA    5   RE=     0.05236
 AO  350 D1 GA    9   RE=    -0.12822
 AO  351 D2 GA    9   RE=     0.07715
 AO  354 D5 GA    9   RE=     0.05443
 AO  433 D2 GA   11   RE=     0.16345
 AO  435 D4 GA   11   RE=     0.08999
 AO  436 D5 GA   11   RE=    -0.05319
 AO  473 D1 GA   12   RE=     0.05979
 AO  474 D2 GA   12   RE=    -0.06831
 AO  514 D1 GA   13   RE=     0.06942
 AO  515 D2 GA   13   RE=     0.15705
 AO  517 D4 GA   13   RE=    -0.08178
 AO  556 D2 GA   14   RE=     0.05165
 AO  597 D2 GA   15   RE=     0.05567
 AO  599 D4 GA   15   RE=    -0.05183
 AO  637 D1 GA   16   RE=     0.06977
 AO  638 D2 GA   16   RE=     0.15330
 AO  640 D4 GA   16   RE=    -0.05997
 AO  678 D1 GA   17   RE=    -0.07046
 AO  679 D2 GA   17   RE=    -0.06744
 AO  720 D2 GA   18   RE=    -0.06323
 AO  760 D1 GA   19   RE=    -0.08336
 AO  761 D2 GA   19   RE=    -0.09228
 AO  843 D2 GA   21   RE=    -0.13741
 AO  845 D4 GA   21   RE=     0.08280
 AO  884 D2 GA   22   RE=    -0.20292
 AO  886 D4 GA   22   RE=     0.09487
 AO  924 D1 GA   23   RE=    -0.09619
 AO  925 D2 GA   23   RE=    -0.14839
 AO  927 D4 GA   23   RE=     0.07355
 AO  965 D1 GA   24   RE=    -0.08570
 AO  966 D2 GA   24   RE=    -0.10043
 AO 1048 D2 GA   26   RE=    -0.06674
 AO 1253 D2 GA   31   RE=    -0.06828
 AO 1335 D2 GA   33   RE=    -0.05175
 AO 1376 D2 GA   34   RE=     0.16481
 AO 1379 D5 GA   34   RE=    -0.23945
 AO 1417 D2 GA   35   RE=    -0.05476
 AO 1459 D3 GA   36   RE=     0.10044
 AO 1460 D4 GA   36   RE=    -0.07543
 AO 1461 D5 GA   36   RE=     0.05517
 AO 1501 D4 GA   37   RE=    -0.05308
 AO 1745 D2 GA   43   RE=     0.08531
 AO 1827 D2 GA   45   RE=     0.06233
 AO 1868 D2 GA   46   RE=     0.07363
 AO 1909 D2 GA   47   RE=     0.05531
 AO 1911 D4 GA   47   RE=    -0.06618
 AO 1949 D1 GA   48   RE=    -0.05253
 AO 1952 D4 GA   48   RE=    -0.06618
 AO 1993 D4 GA   49   RE=     0.06088
 AO 2075 D4 GA   51   RE=     0.05044
 AO 2195 D1 GA   54   RE=     0.06060
 AO 2239 D4 GA   55   RE=     0.11109
 AO 2278 D2 GA   56   RE=    -0.07142
 AO 2401 D2 GA   59   RE=    -0.11409
 AO 2402 D3 GA   59   RE=    -0.05341
 AO 2403 D4 GA   59   RE=    -0.08850
 AO 2524 D2 GA   62   RE=     0.05064
    BAND 1007    E(A.U.)=      -0.736994
 AO   24 D3 GA    1   RE=     0.07640
 AO   26 D5 GA    1   RE=     0.06085
 AO   67 D5 GA    2   RE=    -0.06609
 AO  105 D2 GA    3   RE=    -0.05056
 AO  106 D3 GA    3   RE=     0.24953
 AO  108 D5 GA    3   RE=    -0.19192
 AO  147 D3 GA    4   RE=     0.05029
 AO  149 D5 GA    4   RE=     0.05859
 AO  515 D2 GA   13   RE=    -0.24666
 AO  517 D4 GA   13   RE=     0.09659
 AO  555 D1 GA   14   RE=     0.14928
 AO  556 D2 GA   14   RE=     0.22701
 AO  558 D4 GA   14   RE=    -0.05972
 AO  597 D2 GA   15   RE=     0.28277
 AO  599 D4 GA   15   RE=    -0.12336
 AO  607 D2 GA   15   RE=     0.05543
 AO  637 D1 GA   16   RE=    -0.13006
 AO  638 D2 GA   16   RE=    -0.18420
 AO  884 D2 GA   22   RE=    -0.05321
 AO  925 D2 GA   23   RE=    -0.05143
 AO 1377 D3 GA   34   RE=    -0.17524
 AO 1459 D3 GA   36   RE=    -0.15467
 AO 1871 D5 GA   46   RE=    -0.08330
 AO 1953 D5 GA   48   RE=     0.06881
 AO 2154 D1 GA   53   RE=     0.14737
 AO 2155 D2 GA   53   RE=     0.19313
 AO 2157 D4 GA   53   RE=     0.18809
 AO 2195 D1 GA   54   RE=    -0.08613
 AO 2196 D2 GA   54   RE=    -0.14326
 AO 2198 D4 GA   54   RE=    -0.08080
 AO 2236 D1 GA   55   RE=    -0.15145
 AO 2237 D2 GA   55   RE=    -0.19902
 AO 2239 D4 GA   55   RE=    -0.14593
 AO 2277 D1 GA   56   RE=     0.10779
 AO 2278 D2 GA   56   RE=     0.13107
 AO 2280 D4 GA   56   RE=     0.08374
 AO 3438  S O   110   RE=    -0.05115
 AO 3996  S O   141   RE=    -0.06112
 AO 4032  S O   143   RE=     0.06432
    BAND 1008    E(A.U.)=      -0.736536
 AO  105 D2 GA    3   RE=    -0.06813
 AO  107 D4 GA    3   RE=    -0.09163
 AO  391 D1 GA   10   RE=     0.05176
 AO  473 D1 GA   12   RE=     0.05291
 AO  842 D1 GA   21   RE=    -0.14718
 AO  843 D2 GA   21   RE=    -0.22658
 AO  845 D4 GA   21   RE=     0.05897
 AO  883 D1 GA   22   RE=     0.05288
 AO  884 D2 GA   22   RE=     0.29963
 AO  886 D4 GA   22   RE=    -0.17441
 AO  894 D2 GA   22   RE=     0.05871
 AO  924 D1 GA   23   RE=     0.15434
 AO  925 D2 GA   23   RE=     0.20483
 AO  966 D2 GA   24   RE=    -0.37821
 AO  968 D4 GA   24   RE=     0.18249
 AO  976 D2 GA   24   RE=    -0.07434
 AO 1129 D1 GA   28   RE=    -0.05174
 AO 1174 D5 GA   29   RE=    -0.07307
 AO 1215 D5 GA   30   RE=     0.11563
 AO 1256 D5 GA   31   RE=     0.07288
 AO 1297 D5 GA   32   RE=    -0.11541
 AO 1375 D1 GA   34   RE=    -0.05267
 AO 1379 D5 GA   34   RE=    -0.08235
 AO 1826 D1 GA   45   RE=     0.07314
 AO 1827 D2 GA   45   RE=     0.13948
 AO 1829 D4 GA   45   RE=     0.06842
 AO 1867 D1 GA   46   RE=    -0.12647
 AO 1868 D2 GA   46   RE=    -0.20326
 AO 1870 D4 GA   46   RE=    -0.11885
 AO 1908 D1 GA   47   RE=    -0.06498
 AO 1909 D2 GA   47   RE=    -0.11914
 AO 1911 D4 GA   47   RE=    -0.08026
 AO 1949 D1 GA   48   RE=     0.10577
 AO 1950 D2 GA   48   RE=     0.21283
 AO 1952 D4 GA   48   RE=     0.10955
 AO 2158 D5 GA   53   RE=     0.11555
 AO 2240 D5 GA   55   RE=    -0.12116
 AO 3564  S O   117   RE=     0.06172
 AO 3600  S O   119   RE=    -0.05489
 AO 4158  S O   150   RE=     0.06462
 AO 4194  S O   152   RE=    -0.07329
    BAND 1009    E(A.U.)=      -0.736368
 AO   64 D2 GA    2   RE=    -0.10921
 AO  104 D1 GA    3   RE=     0.05468
 AO  105 D2 GA    3   RE=    -0.07164
 AO  146 D2 GA    4   RE=    -0.09124
 AO  227 D1 GA    6   RE=    -0.05448
 AO  228 D2 GA    6   RE=    -0.08733
 AO  230 D4 GA    6   RE=     0.05401
 AO  309 D1 GA    8   RE=    -0.05083
 AO  310 D2 GA    8   RE=    -0.08583
 AO  312 D4 GA    8   RE=     0.05354
 AO  350 D1 GA    9   RE=    -0.08620
 AO  351 D2 GA    9   RE=    -0.09238
 AO  353 D4 GA    9   RE=     0.09301
 AO  391 D1 GA   10   RE=     0.24674
 AO  435 D4 GA   11   RE=     0.11934
 AO  473 D1 GA   12   RE=     0.26492
 AO  474 D2 GA   12   RE=    -0.06312
 AO  476 D4 GA   12   RE=     0.07404
 AO  483 D1 GA   12   RE=     0.05237
 AO  514 D1 GA   13   RE=    -0.06572
 AO  515 D2 GA   13   RE=    -0.06423
 AO  556 D2 GA   14   RE=    -0.14657
 AO  558 D4 GA   14   RE=     0.05766
 AO  596 D1 GA   15   RE=    -0.06904
 AO  597 D2 GA   15   RE=    -0.08490
 AO  638 D2 GA   16   RE=    -0.12940
 AO  640 D4 GA   16   RE=     0.05223
 AO  679 D2 GA   17   RE=     0.08184
 AO  719 D1 GA   18   RE=     0.14004
 AO  720 D2 GA   18   RE=     0.07359
 AO  761 D2 GA   19   RE=     0.07321
 AO  801 D1 GA   20   RE=     0.14215
 AO  802 D2 GA   20   RE=     0.08659
 AO  843 D2 GA   21   RE=     0.06871
 AO  883 D1 GA   22   RE=     0.08864
 AO  965 D1 GA   24   RE=     0.08585
 AO  966 D2 GA   24   RE=     0.09778
 AO  968 D4 GA   24   RE=    -0.07238
 AO 1047 D1 GA   26   RE=    -0.18039
 AO 1050 D4 GA   26   RE=    -0.05761
 AO 1129 D1 GA   28   RE=    -0.27213
 AO 1139 D1 GA   28   RE=    -0.05429
 AO 1379 D5 GA   34   RE=    -0.08901
 AO 1540 D2 GA   38   RE=     0.06810
 AO 1542 D4 GA   38   RE=     0.05001
 AO 1622 D2 GA   40   RE=     0.06611
 AO 1703 D1 GA   42   RE=    -0.12902
 AO 1704 D2 GA   42   RE=    -0.05451
 AO 1785 D1 GA   44   RE=    -0.21545
 AO 1786 D2 GA   44   RE=    -0.07365
 AO 1870 D4 GA   46   RE=     0.07337
 AO 1950 D2 GA   48   RE=    -0.05624
 AO 2032 D2 GA   50   RE=    -0.05966
 AO 2034 D4 GA   50   RE=    -0.07484
 AO 2116 D4 GA   52   RE=    -0.05305
 AO 2195 D1 GA   54   RE=    -0.05323
 AO 2237 D2 GA   55   RE=     0.06079
 AO 2277 D1 GA   56   RE=    -0.05964
 AO 2359 D1 GA   58   RE=     0.11911
 AO 2401 D2 GA   59   RE=    -0.06007
 AO 2441 D1 GA   60   RE=     0.11416
 AO 2790  S O    74   RE=     0.05196
 AO 2826  S O    76   RE=     0.05498
    BAND 1010    E(A.U.)=      -0.736224
[...]
-rw-r--r-- 1 felipe users         0 Dec 30 20:01 fort.61.pe03
-rw-r--r-- 1 felipe users         0 Dec 30 20:01 fort.61.pe04
-rw-r--r-- 1 felipe users         0 Dec 30 20:01 fort.61.pe05
-rw-r--r-- 1 felipe users         0 Dec 30 20:01 fort.61.pe06
-rw-r--r-- 1 felipe users         0 Dec 30 20:01 fort.61.pe07
-rw-r--r-- 1 felipe users         0 Dec 30 20:01 fort.61.pe08
-rw-r--r-- 1 felipe users         0 Dec 30 20:01 fort.61.pe09
-rw-r--r-- 1 felipe users         0 Dec 30 20:01 fort.61.pe10
-rw-r--r-- 1 felipe users         0 Dec 30 20:01 fort.61.pe11
-rw-r--r-- 1 felipe users         0 Dec 30 20:01 fort.61.pe12
-rw-r--r-- 1 felipe users         0 Dec 30 20:01 fort.61.pe13
-rw-r--r-- 1 felipe users         0 Dec 30 20:01 fort.61.pe14
-rw-r--r-- 1 felipe users         0 Dec 30 20:01 fort.61.pe15
-rw-r--r-- 1 felipe users         0 Dec 30 20:01 fort.61.pe16
-rw-r--r-- 1 felipe users         0 Dec 30 20:01 fort.61.pe17
-rw-r--r-- 1 felipe users         0 Dec 30 20:01 fort.61.pe18
-rw-r--r-- 1 felipe users         0 Dec 30 20:01 fort.61.pe19
-rw-r--r-- 1 felipe users         0 Dec 30 20:01 fort.61.pe20
-rw-r--r-- 1 felipe users         0 Dec 30 20:01 fort.61.pe21
-rw-r--r-- 1 felipe users         0 Dec 30 20:01 fort.61.pe22
-rw-r--r-- 1 felipe users         0 Dec 30 20:01 fort.61.pe23
-rw-r--r-- 1 felipe users         0 Dec 30 20:01 fort.61.pe24
-rw-r--r-- 1 felipe users         0 Dec 30 20:01 fort.61.pe25
-rw-r--r-- 1 felipe users         0 Dec 30 20:01 fort.61.pe26
-rw-r--r-- 1 felipe users         0 Dec 30 20:01 fort.61.pe27
-rw-r--r-- 1 felipe users         0 Dec 30 20:01 fort.61.pe28
-rw-r--r-- 1 felipe users         0 Dec 30 20:01 fort.61.pe29
-rw-r--r-- 1 felipe users         0 Dec 30 20:01 fort.61.pe30
-rw-r--r-- 1 felipe users         0 Dec 30 20:01 fort.61.pe31
-rw-r--r-- 1 felipe users         0 Dec 30 20:01 fort.61.pe32
-rw-r--r-- 1 felipe users         0 Dec 30 20:01 fort.61.pe33
-rw-r--r-- 1 felipe users         0 Dec 30 20:01 fort.61.pe34
-rw-r--r-- 1 felipe users         0 Dec 30 20:01 fort.61.pe35
-rw-r--r-- 1 felipe users         0 Dec 30 20:01 fort.61.pe36
-rw-r--r-- 1 felipe users         0 Dec 30 20:01 fort.61.pe37
-rw-r--r-- 1 felipe users         0 Dec 30 20:01 fort.61.pe38
-rw-r--r-- 1 felipe users         0 Dec 30 20:01 fort.61.pe39
-rw-r--r-- 1 felipe users         0 Dec 30 20:01 fort.61.pe40
-rw-r--r-- 1 felipe users         0 Dec 30 20:01 fort.61.pe41
-rw-r--r-- 1 felipe users         0 Dec 30 20:01 fort.61.pe42
-rw-r--r-- 1 felipe users         0 Dec 30 20:01 fort.61.pe43
-rw-r--r-- 1 felipe users         0 Dec 30 20:01 fort.61.pe44
-rw-r--r-- 1 felipe users         0 Dec 30 20:01 fort.61.pe45
-rw-r--r-- 1 felipe users         0 Dec 30 20:01 fort.61.pe46
-rw-r--r-- 1 felipe users         0 Dec 30 20:01 fort.61.pe47
-rw-r--r-- 1 felipe users         0 Dec 30 20:01 fort.61.pe48
-rw-r--r-- 1 felipe users         0 Dec 30 20:01 fort.61.pe49
-rw-r--r-- 1 felipe users         0 Dec 30 20:01 fort.61.pe50
-rw-r--r-- 1 felipe users         0 Dec 30 20:01 fort.61.pe51
-rw-r--r-- 1 felipe users         0 Dec 30 20:01 fort.61.pe52
-rw-r--r-- 1 felipe users         0 Dec 30 20:01 fort.61.pe53
-rw-r--r-- 1 felipe users         0 Dec 30 20:01 fort.61.pe54
-rw-r--r-- 1 felipe users         0 Dec 30 20:01 fort.61.pe55
-rw-r--r-- 1 felipe users         0 Dec 30 20:01 fort.61.pe56
-rw-r--r-- 1 felipe users         0 Dec 30 20:01 fort.61.pe57
-rw-r--r-- 1 felipe users         0 Dec 30 20:01 fort.61.pe58
-rw-r--r-- 1 felipe users         0 Dec 30 20:01 fort.61.pe59
-rw-r--r-- 1 felipe users         0 Dec 30 20:01 fort.61.pe60
-rw-r--r-- 1 felipe users         0 Dec 30 20:01 fort.61.pe61
-rw-r--r-- 1 felipe users         0 Dec 30 20:01 fort.61.pe62
-rw-r--r-- 1 felipe users         0 Dec 30 20:01 fort.61.pe63
-rw-r--r-- 1 felipe users         0 Dec 30 20:01 fort.62.pe00
-rw-r--r-- 1 felipe users         0 Dec 30 20:01 fort.62.pe01
-rw-r--r-- 1 felipe users         0 Dec 30 20:01 fort.62.pe02
-rw-r--r-- 1 felipe users         0 Dec 30 20:01 fort.62.pe03
-rw-r--r-- 1 felipe users         0 Dec 30 20:01 fort.62.pe04
-rw-r--r-- 1 felipe users         0 Dec 30 20:01 fort.62.pe05
-rw-r--r-- 1 felipe users         0 Dec 30 20:01 fort.62.pe06
-rw-r--r-- 1 felipe users         0 Dec 30 20:01 fort.62.pe07
-rw-r--r-- 1 felipe users         0 Dec 30 20:01 fort.62.pe08
-rw-r--r-- 1 felipe users         0 Dec 30 20:01 fort.62.pe09
-rw-r--r-- 1 felipe users         0 Dec 30 20:01 fort.62.pe10
-rw-r--r-- 1 felipe users         0 Dec 30 20:01 fort.62.pe11
-rw-r--r-- 1 felipe users         0 Dec 30 20:01 fort.62.pe12
-rw-r--r-- 1 felipe users         0 Dec 30 20:01 fort.62.pe13
-rw-r--r-- 1 felipe users         0 Dec 30 20:01 fort.62.pe14
-rw-r--r-- 1 felipe users         0 Dec 30 20:01 fort.62.pe15
-rw-r--r-- 1 felipe users         0 Dec 30 20:01 fort.62.pe16
-rw-r--r-- 1 felipe users         0 Dec 30 20:01 fort.62.pe17
-rw-r--r-- 1 felipe users         0 Dec 30 20:01 fort.62.pe18
-rw-r--r-- 1 felipe users         0 Dec 30 20:01 fort.62.pe19
-rw-r--r-- 1 felipe users         0 Dec 30 20:01 fort.62.pe20
-rw-r--r-- 1 felipe users         0 Dec 30 20:01 fort.62.pe21
-rw-r--r-- 1 felipe users         0 Dec 30 20:01 fort.62.pe22
-rw-r--r-- 1 felipe users         0 Dec 30 20:01 fort.62.pe23
-rw-r--r-- 1 felipe users         0 Dec 30 20:01 fort.62.pe24
-rw-r--r-- 1 felipe users         0 Dec 30 20:01 fort.62.pe25
-rw-r--r-- 1 felipe users         0 Dec 30 20:01 fort.62.pe26
-rw-r--r-- 1 felipe users         0 Dec 30 20:01 fort.62.pe27
-rw-r--r-- 1 felipe users         0 Dec 30 20:01 fort.62.pe28
-rw-r--r-- 1 felipe users         0 Dec 30 20:01 fort.62.pe29
-rw-r--r-- 1 felipe users         0 Dec 30 20:01 fort.62.pe30
-rw-r--r-- 1 felipe users         0 Dec 30 20:01 fort.62.pe31
-rw-r--r-- 1 felipe users         0 Dec 30 20:01 fort.62.pe32
-rw-r--r-- 1 felipe users         0 Dec 30 20:01 fort.62.pe33
-rw-r--r-- 1 felipe users         0 Dec 30 20:01 fort.62.pe34
-rw-r--r-- 1 felipe users         0 Dec 30 20:01 fort.62.pe35
-rw-r--r-- 1 felipe users         0 Dec 30 20:01 fort.62.pe36
-rw-r--r-- 1 felipe users         0 Dec 30 20:01 fort.62.pe37
-rw-r--r-- 1 felipe users         0 Dec 30 20:01 fort.62.pe38
-rw-r--r-- 1 felipe users         0 Dec 30 20:01 fort.62.pe39
-rw-r--r-- 1 felipe users         0 Dec 30 20:01 fort.62.pe40
-rw-r--r-- 1 felipe users         0 Dec 30 20:01 fort.62.pe41
-rw-r--r-- 1 felipe users         0 Dec 30 20:01 fort.62.pe42
-rw-r--r-- 1 felipe users         0 Dec 30 20:01 fort.62.pe43
-rw-r--r-- 1 felipe users         0 Dec 30 20:01 fort.62.pe44
-rw-r--r-- 1 felipe users         0 Dec 30 20:01 fort.62.pe45
-rw-r--r-- 1 felipe users         0 Dec 30 20:01 fort.62.pe46
-rw-r--r-- 1 felipe users         0 Dec 30 20:01 fort.62.pe47
-rw-r--r-- 1 felipe users         0 Dec 30 20:01 fort.62.pe48
-rw-r--r-- 1 felipe users         0 Dec 30 20:01 fort.62.pe49
-rw-r--r-- 1 felipe users         0 Dec 30 20:01 fort.62.pe50
-rw-r--r-- 1 felipe users         0 Dec 30 20:01 fort.62.pe51
-rw-r--r-- 1 felipe users         0 Dec 30 20:01 fort.62.pe52
-rw-r--r-- 1 felipe users         0 Dec 30 20:01 fort.62.pe53
-rw-r--r-- 1 felipe users         0 Dec 30 20:01 fort.62.pe54
-rw-r--r-- 1 felipe users         0 Dec 30 20:01 fort.62.pe55
-rw-r--r-- 1 felipe users         0 Dec 30 20:01 fort.62.pe56
-rw-r--r-- 1 felipe users         0 Dec 30 20:01 fort.62.pe57
-rw-r--r-- 1 felipe users         0 Dec 30 20:01 fort.62.pe58
-rw-r--r-- 1 felipe users         0 Dec 30 20:01 fort.62.pe59
-rw-r--r-- 1 felipe users         0 Dec 30 20:01 fort.62.pe60
-rw-r--r-- 1 felipe users         0 Dec 30 20:01 fort.62.pe61
-rw-r--r-- 1 felipe users         0 Dec 30 20:01 fort.62.pe62
-rw-r--r-- 1 felipe users         0 Dec 30 20:01 fort.62.pe63
-rw-r--r-- 1 felipe users         0 Dec 30 20:01 fort.75.pe00
-rw-r--r-- 1 felipe users         0 Dec 30 20:01 fort.75.pe01
-rw-r--r-- 1 felipe users         0 Dec 30 20:01 fort.75.pe02
-rw-r--r-- 1 felipe users         0 Dec 30 20:01 fort.75.pe03
-rw-r--r-- 1 felipe users         0 Dec 30 20:01 fort.75.pe04
-rw-r--r-- 1 felipe users         0 Dec 30 20:01 fort.75.pe05
-rw-r--r-- 1 felipe users         0 Dec 30 20:01 fort.75.pe06
-rw-r--r-- 1 felipe users         0 Dec 30 20:01 fort.75.pe07
-rw-r--r-- 1 felipe users         0 Dec 30 20:01 fort.75.pe08
-rw-r--r-- 1 felipe users         0 Dec 30 20:01 fort.75.pe09
-rw-r--r-- 1 felipe users         0 Dec 30 20:01 fort.75.pe10
-rw-r--r-- 1 felipe users         0 Dec 30 20:01 fort.75.pe11
-rw-r--r-- 1 felipe users         0 Dec 30 20:01 fort.75.pe12
-rw-r--r-- 1 felipe users         0 Dec 30 20:01 fort.75.pe13
-rw-r--r-- 1 felipe users         0 Dec 30 20:01 fort.75.pe14
-rw-r--r-- 1 felipe users         0 Dec 30 20:01 fort.75.pe15
-rw-r--r-- 1 felipe users         0 Dec 30 20:01 fort.75.pe16
-rw-r--r-- 1 felipe users         0 Dec 30 20:01 fort.75.pe17
-rw-r--r-- 1 felipe users         0 Dec 30 20:01 fort.75.pe18
-rw-r--r-- 1 felipe users         0 Dec 30 20:01 fort.75.pe19
-rw-r--r-- 1 felipe users         0 Dec 30 20:01 fort.75.pe20
-rw-r--r-- 1 felipe users         0 Dec 30 20:01 fort.75.pe21
-rw-r--r-- 1 felipe users         0 Dec 30 20:01 fort.75.pe22
-rw-r--r-- 1 felipe users         0 Dec 30 20:01 fort.75.pe23
-rw-r--r-- 1 felipe users         0 Dec 30 20:01 fort.75.pe24
-rw-r--r-- 1 felipe users         0 Dec 30 20:01 fort.75.pe25
-rw-r--r-- 1 felipe users         0 Dec 30 20:01 fort.75.pe26
-rw-r--r-- 1 felipe users         0 Dec 30 20:01 fort.75.pe27
-rw-r--r-- 1 felipe users         0 Dec 30 20:01 fort.75.pe28
-rw-r--r-- 1 felipe users         0 Dec 30 20:01 fort.75.pe29
-rw-r--r-- 1 felipe users         0 Dec 30 20:01 fort.75.pe30
-rw-r--r-- 1 felipe users         0 Dec 30 20:01 fort.75.pe31
-rw-r--r-- 1 felipe users         0 Dec 30 20:01 fort.75.pe32
-rw-r--r-- 1 felipe users         0 Dec 30 20:01 fort.75.pe33
-rw-r--r-- 1 felipe users         0 Dec 30 20:01 fort.75.pe34
-rw-r--r-- 1 felipe users         0 Dec 30 20:01 fort.75.pe35
-rw-r--r-- 1 felipe users         0 Dec 30 20:01 fort.75.pe36
-rw-r--r-- 1 felipe users         0 Dec 30 20:01 fort.75.pe37
-rw-r--r-- 1 felipe users         0 Dec 30 20:01 fort.75.pe38
-rw-r--r-- 1 felipe users         0 Dec 30 20:01 fort.75.pe39
-rw-r--r-- 1 felipe users         0 Dec 30 20:01 fort.75.pe40
-rw-r--r-- 1 felipe users         0 Dec 30 20:01 fort.75.pe41
-rw-r--r-- 1 felipe users         0 Dec 30 20:01 fort.75.pe42
-rw-r--r-- 1 felipe users         0 Dec 30 20:01 fort.75.pe43
-rw-r--r-- 1 felipe users         0 Dec 30 20:01 fort.75.pe44
-rw-r--r-- 1 felipe users         0 Dec 30 20:01 fort.75.pe45
-rw-r--r-- 1 felipe users         0 Dec 30 20:01 fort.75.pe46
-rw-r--r-- 1 felipe users         0 Dec 30 20:01 fort.75.pe47
-rw-r--r-- 1 felipe users         0 Dec 30 20:01 fort.75.pe48
-rw-r--r-- 1 felipe users         0 Dec 30 20:01 fort.75.pe49
-rw-r--r-- 1 felipe users         0 Dec 30 20:01 fort.75.pe50
-rw-r--r-- 1 felipe users         0 Dec 30 20:01 fort.75.pe51
-rw-r--r-- 1 felipe users         0 Dec 30 20:01 fort.75.pe52
-rw-r--r-- 1 felipe users         0 Dec 30 20:01 fort.75.pe53
-rw-r--r-- 1 felipe users         0 Dec 30 20:01 fort.75.pe54
-rw-r--r-- 1 felipe users         0 Dec 30 20:01 fort.75.pe55
-rw-r--r-- 1 felipe users         0 Dec 30 20:01 fort.75.pe56
-rw-r--r-- 1 felipe users         0 Dec 30 20:01 fort.75.pe57
-rw-r--r-- 1 felipe users         0 Dec 30 20:01 fort.75.pe58
-rw-r--r-- 1 felipe users         0 Dec 30 20:01 fort.75.pe59
-rw-r--r-- 1 felipe users         0 Dec 30 20:01 fort.75.pe60
-rw-r--r-- 1 felipe users         0 Dec 30 20:01 fort.75.pe61
-rw-r--r-- 1 felipe users         0 Dec 30 20:01 fort.75.pe62
-rw-r--r-- 1 felipe users         0 Dec 30 20:01 fort.75.pe63
-rw-r--r-- 1 felipe users         0 Dec 30 20:01 fort.77.pe00
-rw-r--r-- 1 felipe users         0 Dec 30 20:01 fort.77.pe01
-rw-r--r-- 1 felipe users         0 Dec 30 20:01 fort.77.pe02
-rw-r--r-- 1 felipe users         0 Dec 30 20:01 fort.77.pe03
-rw-r--r-- 1 felipe users         0 Dec 30 20:01 fort.77.pe04
-rw-r--r-- 1 felipe users         0 Dec 30 20:01 fort.77.pe05
-rw-r--r-- 1 felipe users         0 Dec 30 20:01 fort.77.pe06
-rw-r--r-- 1 felipe users         0 Dec 30 20:01 fort.77.pe07
-rw-r--r-- 1 felipe users         0 Dec 30 20:01 fort.77.pe08
-rw-r--r-- 1 felipe users         0 Dec 30 20:01 fort.77.pe09
-rw-r--r-- 1 felipe users         0 Dec 30 20:01 fort.77.pe10
-rw-r--r-- 1 felipe users         0 Dec 30 20:01 fort.77.pe11
-rw-r--r-- 1 felipe users         0 Dec 30 20:01 fort.77.pe12
-rw-r--r-- 1 felipe users         0 Dec 30 20:01 fort.77.pe13
-rw-r--r-- 1 felipe users         0 Dec 30 20:01 fort.77.pe14
-rw-r--r-- 1 felipe users         0 Dec 30 20:01 fort.77.pe15
-rw-r--r-- 1 felipe users         0 Dec 30 20:01 fort.77.pe16
-rw-r--r-- 1 felipe users         0 Dec 30 20:01 fort.77.pe17
-rw-r--r-- 1 felipe users         0 Dec 30 20:01 fort.77.pe18
-rw-r--r-- 1 felipe users         0 Dec 30 20:01 fort.77.pe19
-rw-r--r-- 1 felipe users         0 Dec 30 20:01 fort.77.pe20
-rw-r--r-- 1 felipe users         0 Dec 30 20:01 fort.77.pe21
-rw-r--r-- 1 felipe users         0 Dec 30 20:01 fort.77.pe22
-rw-r--r-- 1 felipe users         0 Dec 30 20:01 fort.77.pe23
-rw-r--r-- 1 felipe users         0 Dec 30 20:01 fort.77.pe24
-rw-r--r-- 1 felipe users         0 Dec 30 20:01 fort.77.pe25
-rw-r--r-- 1 felipe users         0 Dec 30 20:01 fort.77.pe26
-rw-r--r-- 1 felipe users         0 Dec 30 20:01 fort.77.pe27
-rw-r--r-- 1 felipe users         0 Dec 30 20:01 fort.77.pe28
-rw-r--r-- 1 felipe users         0 Dec 30 20:01 fort.77.pe29
-rw-r--r-- 1 felipe users         0 Dec 30 20:01 fort.77.pe30
-rw-r--r-- 1 felipe users         0 Dec 30 20:01 fort.77.pe31
-rw-r--r-- 1 felipe users         0 Dec 30 20:01 fort.77.pe32
-rw-r--r-- 1 felipe users         0 Dec 30 20:01 fort.77.pe33
-rw-r--r-- 1 felipe users         0 Dec 30 20:01 fort.77.pe34
-rw-r--r-- 1 felipe users         0 Dec 30 20:01 fort.77.pe35
-rw-r--r-- 1 felipe users         0 Dec 30 20:01 fort.77.pe36
-rw-r--r-- 1 felipe users         0 Dec 30 20:01 fort.77.pe37
-rw-r--r-- 1 felipe users         0 Dec 30 20:01 fort.77.pe38
-rw-r--r-- 1 felipe users         0 Dec 30 20:01 fort.77.pe39
-rw-r--r-- 1 felipe users         0 Dec 30 20:01 fort.77.pe40
-rw-r--r-- 1 felipe users         0 Dec 30 20:01 fort.77.pe41
-rw-r--r-- 1 felipe users         0 Dec 30 20:01 fort.77.pe42
-rw-r--r-- 1 felipe users         0 Dec 30 20:01 fort.77.pe43
-rw-r--r-- 1 felipe users         0 Dec 30 20:01 fort.77.pe44
-rw-r--r-- 1 felipe users         0 Dec 30 20:01 fort.77.pe45
-rw-r--r-- 1 felipe users         0 Dec 30 20:01 fort.77.pe46
-rw-r--r-- 1 felipe users         0 Dec 30 20:01 fort.77.pe47
-rw-r--r-- 1 felipe users         0 Dec 30 20:01 fort.77.pe48
-rw-r--r-- 1 felipe users         0 Dec 30 20:01 fort.77.pe49
-rw-r--r-- 1 felipe users         0 Dec 30 20:01 fort.77.pe50
-rw-r--r-- 1 felipe users         0 Dec 30 20:01 fort.77.pe51
-rw-r--r-- 1 felipe users         0 Dec 30 20:01 fort.77.pe52
-rw-r--r-- 1 felipe users         0 Dec 30 20:01 fort.77.pe53
-rw-r--r-- 1 felipe users         0 Dec 30 20:01 fort.77.pe54
-rw-r--r-- 1 felipe users         0 Dec 30 20:01 fort.77.pe55
-rw-r--r-- 1 felipe users         0 Dec 30 20:01 fort.77.pe56
-rw-r--r-- 1 felipe users         0 Dec 30 20:01 fort.77.pe57
-rw-r--r-- 1 felipe users         0 Dec 30 20:01 fort.77.pe58
-rw-r--r-- 1 felipe users         0 Dec 30 20:01 fort.77.pe59
-rw-r--r-- 1 felipe users         0 Dec 30 20:01 fort.77.pe60
-rw-r--r-- 1 felipe users         0 Dec 30 20:01 fort.77.pe61
-rw-r--r-- 1 felipe users         0 Dec 30 20:01 fort.77.pe62
-rw-r--r-- 1 felipe users         0 Dec 30 20:01 fort.77.pe63
-rw-r--r-- 1 felipe users         0 Dec 30 20:01 fort.8.pe00
-rw-r--r-- 1 felipe users         0 Dec 30 20:01 fort.8.pe01
-rw-r--r-- 1 felipe users         0 Dec 30 20:01 fort.8.pe02
-rw-r--r-- 1 felipe users         0 Dec 30 20:01 fort.8.pe03
-rw-r--r-- 1 felipe users         0 Dec 30 20:01 fort.8.pe04
-rw-r--r-- 1 felipe users         0 Dec 30 20:01 fort.8.pe05
-rw-r--r-- 1 felipe users         0 Dec 30 20:01 fort.8.pe06
-rw-r--r-- 1 felipe users         0 Dec 30 20:01 fort.8.pe07
-rw-r--r-- 1 felipe users         0 Dec 30 20:01 fort.8.pe08
-rw-r--r-- 1 felipe users         0 Dec 30 20:01 fort.8.pe09
-rw-r--r-- 1 felipe users         0 Dec 30 20:01 fort.8.pe10
-rw-r--r-- 1 felipe users         0 Dec 30 20:01 fort.8.pe11
-rw-r--r-- 1 felipe users         0 Dec 30 20:01 fort.8.pe12
-rw-r--r-- 1 felipe users         0 Dec 30 20:01 fort.8.pe13
-rw-r--r-- 1 felipe users         0 Dec 30 20:01 fort.8.pe14
-rw-r--r-- 1 felipe users         0 Dec 30 20:01 fort.8.pe15
-rw-r--r-- 1 felipe users         0 Dec 30 20:01 fort.8.pe16
-rw-r--r-- 1 felipe users         0 Dec 30 20:01 fort.8.pe17
-rw-r--r-- 1 felipe users         0 Dec 30 20:01 fort.8.pe18
-rw-r--r-- 1 felipe users         0 Dec 30 20:01 fort.8.pe19
-rw-r--r-- 1 felipe users         0 Dec 30 20:01 fort.8.pe20
-rw-r--r-- 1 felipe users         0 Dec 30 20:01 fort.8.pe21
-rw-r--r-- 1 felipe users         0 Dec 30 20:01 fort.8.pe22
-rw-r--r-- 1 felipe users         0 Dec 30 20:01 fort.8.pe23
-rw-r--r-- 1 felipe users         0 Dec 30 20:01 fort.8.pe24
-rw-r--r-- 1 felipe users         0 Dec 30 20:01 fort.8.pe25
-rw-r--r-- 1 felipe users         0 Dec 30 20:01 fort.8.pe26
-rw-r--r-- 1 felipe users         0 Dec 30 20:01 fort.8.pe27
-rw-r--r-- 1 felipe users         0 Dec 30 20:01 fort.8.pe28
-rw-r--r-- 1 felipe users         0 Dec 30 20:01 fort.8.pe29
-rw-r--r-- 1 felipe users         0 Dec 30 20:01 fort.8.pe30
-rw-r--r-- 1 felipe users         0 Dec 30 20:01 fort.8.pe31
-rw-r--r-- 1 felipe users         0 Dec 30 20:01 fort.8.pe32
-rw-r--r-- 1 felipe users         0 Dec 30 20:01 fort.8.pe33
-rw-r--r-- 1 felipe users         0 Dec 30 20:01 fort.8.pe34
-rw-r--r-- 1 felipe users         0 Dec 30 20:01 fort.8.pe35
-rw-r--r-- 1 felipe users         0 Dec 30 20:01 fort.8.pe36
-rw-r--r-- 1 felipe users         0 Dec 30 20:01 fort.8.pe37
-rw-r--r-- 1 felipe users         0 Dec 30 20:01 fort.8.pe38
-rw-r--r-- 1 felipe users         0 Dec 30 20:01 fort.8.pe39
-rw-r--r-- 1 felipe users         0 Dec 30 20:01 fort.8.pe40
-rw-r--r-- 1 felipe users         0 Dec 30 20:01 fort.8.pe41
-rw-r--r-- 1 felipe users         0 Dec 30 20:01 fort.8.pe42
-rw-r--r-- 1 felipe users         0 Dec 30 20:01 fort.8.pe43
-rw-r--r-- 1 felipe users         0 Dec 30 20:01 fort.8.pe44
-rw-r--r-- 1 felipe users         0 Dec 30 20:01 fort.8.pe45
-rw-r--r-- 1 felipe users         0 Dec 30 20:01 fort.8.pe46
-rw-r--r-- 1 felipe users         0 Dec 30 20:01 fort.8.pe47
-rw-r--r-- 1 felipe users 151519240 Dec 30 20:15 fort.8.pe48
-rw-r--r-- 1 felipe users 151519240 Dec 30 20:15 fort.8.pe49
-rw-r--r-- 1 felipe users 151519240 Dec 30 20:15 fort.8.pe50
-rw-r--r-- 1 felipe users 151519240 Dec 30 20:15 fort.8.pe51
-rw-r--r-- 1 felipe users 151519240 Dec 30 20:15 fort.8.pe52
-rw-r--r-- 1 felipe users 151519240 Dec 30 20:15 fort.8.pe53
-rw-r--r-- 1 felipe users 151519240 Dec 30 20:15 fort.8.pe54
-rw-r--r-- 1 felipe users 151519240 Dec 30 20:15 fort.8.pe55
-rw-r--r-- 1 felipe users 151519240 Dec 30 20:15 fort.8.pe56
-rw-r--r-- 1 felipe users 151519240 Dec 30 20:15 fort.8.pe57
-rw-r--r-- 1 felipe users 151519240 Dec 30 20:15 fort.8.pe58
-rw-r--r-- 1 felipe users 151519240 Dec 30 20:15 fort.8.pe59
-rw-r--r-- 1 felipe users 151519240 Dec 30 20:15 fort.8.pe60
-rw-r--r-- 1 felipe users 151519240 Dec 30 20:15 fort.8.pe61
-rw-r--r-- 1 felipe users 151519240 Dec 30 20:15 fort.8.pe62
-rw-r--r-- 1 felipe users 151519240 Dec 30 20:15 fort.8.pe63
-rw-r--r-- 1 felipe users 142998508 Dec 30 20:01 fort.9
-rw-r--r-- 1 felipe users 376608401 Dec 30 20:01 fort.98
-rw-r--r-- 1 felipe users        33 Dec 30 20:01 INPUT
-rwxr-xr-x 1 felipe users 104622352 Dec 30 20:01 Pproperties
file fort.98 saved as /home/felipe/Wide-Band-Gap/Ga2O3/18_HF/OCTA/GaO_OCTA_18HF_ANBD.f98
removing temporary directories /home/felipe/tmp/tmp_p79059_felipe from each node
