date sábado, 13 de septiembre de 2025, 11:23:24 CEST
master hostname FINE.local
master system Darwin FINE.local 24.5.0 Darwin Kernel Version 24.5.0: Tue Apr 22 19:54:25 PDT 2025; root:xnu-11417.121.6~2/RELEASE_ARM64_T6020 arm64
user fine1
output data in /Users/fine1/Ga2O3Paper/Ga2O3_1x2x2_O_1_VAC/Ga2O3_Ovac_1_SCF_ECHG.outp
mpirun executable in /usr/local/openmpi-4.1.6/bin
file machines.LINUX in /Users/fine1/CRYSTAL23/utils23
list of nodes in /Users/fine1/CRYSTAL23/utils23/nodes.par
creating temporary directories /Users/fine1/tmp/tmp_p11413_fine1 on each node
copying input file on each node
scf guess from /Users/fine1/Ga2O3Paper/Ga2O3_1x2x2_O_1_VAC/Ga2O3_Ovac_1_SCF.f9
copying Pproperties executable on each node
properties input data in /Users/fine1/Ga2O3Paper/Ga2O3_1x2x2_O_1_VAC/Ga2O3_Ovac_1_SCF_ECHG.d3
ECHG
0
1500
COORDINA
7.092 0 -4.201
3.213 0 3.868
-7.092 0 4.201
MARGINS
1.5 1.5 1.5 1.5
END
END
copying input file on each node
wave function formatted data from /Users/fine1/Ga2O3Paper/Ga2O3_1x2x2_O_1_VAC/Ga2O3_Ovac_1_SCF.f98
 PROCESS            0  OF           24  WORKING
 PROCESS           23  OF           24  WORKING
 PROCESS            5  OF           24  WORKING
 PROCESS            1  OF           24  WORKING
 PROCESS           17  OF           24  WORKING
 PROCESS           14  OF           24  WORKING
 PROCESS            2  OF           24  WORKING
 PROCESS            9  OF           24  WORKING
 PROCESS            7  OF           24  WORKING
 PROCESS           10  OF           24  WORKING
 PROCESS            3  OF           24  WORKING
 PROCESS            6  OF           24  WORKING
 PROCESS           13  OF           24  WORKING
 PROCESS           18  OF           24  WORKING
 PROCESS            4  OF           24  WORKING
 PROCESS            8  OF           24  WORKING
 PROCESS           11  OF           24  WORKING
 PROCESS           20  OF           24  WORKING
 PROCESS           21  OF           24  WORKING
 PROCESS           22  OF           24  WORKING
 PROCESS           19  OF           24  WORKING
 PROCESS           12  OF           24  WORKING
 PROCESS           16  OF           24  WORKING
 PROCESS           15  OF           24  WORKING

         
 *******************************************************************************
 *                                                                             *
 *                               CRYSTAL23                                     *
 *                      public : 1.0.1 - October 2022                          *
 *                       HTTP://WWW.CRYSTAL.UNITO.IT                           *
 *                                                                             *
 *                              MAIN AUTHORS                                   *
 *                                                                             *
 *  R. DOVESI(1,11), V.R. SAUNDERS(2), C. ROETTI(1,11), R. ORLANDO(1,11),      *
 *  C.M. ZICOVICH-WILSON(1,3), F. PASCALE(4), B. CIVALLERI(1,11),              *
 *  K. DOLL(5), N.M. HARRISON(6), I.J. BUSH(7), Ph. D'ARCO(8),                 *
 *  M. LLUNELL(9), M. CAUSA'(10), Y. NOEL(8), L. MASCHIO(1,11), A. ERBA(1,11)  *
 *  M. RE'RAT(14), S. CASASSA(1,11), B.G. SEARLE(2), J.K. DESMARAIS(1)         *
 *                                                                             *
 *        CONTRIBUTIONS TO THE CODE HAVE ALSO BEEN GIVEN BY                    *
 *                                                                             *
 *  M. FERRABONE(1,11), M. DE LA PIERRE(1,11), M. FERRERO(1,11),               *
 *  J. BAIMA(1,11), E. ALBANESE(1,11), M.F. PEINTINGER(12), R. BAST(13),       *
 *  B. KIRTMAN(15), V. LACIVITA(1,11), R. DEMICHELIS(1,16)                     *
 *  G. BRANDEBURG(17), S. SALUSTRO(1,11), G. SANSONE(1,11)                     *
 *  M.T. RUGGIERO(18), L.E. DAGA(1), L. DONA'(1), A. COSSARD(1)                *
 *                                                                             *
 * (1) THEORETICAL CHEMISTRY GROUP - UNIVERSITA' DI TORINO - TORINO (ITALY)    *
 * (2) SCIENTIFIC COMPUTING DEPARTMENT - STFC DARESBURY (UK)                   *
 * (3) UNIVERSIDAD AUTONOMA DEL ESTADO DE MORELOS - CUERNAVACA (MEXICO)        *
 * (4) UNIVERSITE' DE LORRAINE - NANCY (FRANCE)                                *
 * (5) UNIVERSITAET STUTTGART- STUTTGART (GERMANY)                             *
 * (6) IMPERIAL COLLEGE - LONDON (UK)                                          *
 * (7) SCIENTIFIC COMPUTING DEPARTMENT - STFC RAL (UK)                         *
 * (8) UPMC - SORBONNE UNIVERSITES - PARIS (FRANCE)                            *
 * (9) UNIVERSIDAD DE BARCELONA - BARCELONA (SPAIN)                            *
 *(10) UNIVERSITA' DI NAPOLI "FEDERICO II" - NAPOLI (ITALY)                    *
 *(11) NIS - NANOSTRUCTURED INTERFACES AND SURFACES - TORINO (ITALY)           *
 *(12) MPI FUER CHEMISCHE ENERGIEKONVERSION - MUELHEIM AN DER RUHR (GERMANY)   *
 *(13) UNIVERSITY OF TROMSO - TROMSO (NORWAY)                                  *
 *(14) UNIVERSITE' DE PAU ET DES PAYS DE L'ADOUR - PAU (FRANCE)                *
 *(15) UNIVERSITY OF CALIFORNIA SANTA BARBARA - SANTA BARBARA (USA)            *
 *(16) CURTIN UNIVERSITY - PERTH (AUSTRALIA)                                   *
 *(17) UNIVERSITY COLLEGE LONDON - LONDON (UK)                                 *
 *(18) UNIVERSITY OF VERMONT - BURLINGTON (USA)                                *
 *                                                                             *
 *******************************************************************************
 EEEEEEEEEE STARTING  DATE 13 09 2025 TIME 11:23:27.5
 INFORMATION **** SET_MPP **** PCRYSTAL CALCULATION

 *******************************************************************************
 GAO3                                                                            
 CRYSTAL - PROPERTIES - TYPE OF CALCULATION :  UNRESTRICTED OPEN SHELL
 *******************************************************************************
 SPIN POLARIZED SYSTEM: SUMMED SPIN DENSITY    0.00000000

 KOHN-SHAM HAMILTONIAN

 (EXCHANGE)[CORRELATION] FUNCTIONAL:(HSE06 SR/GGA)[PERDEW-BURKE-ERNZERHOF]

 RANGE-SEPARATED HYBRID FUNCTIONAL 
 OMEGA (SHORT-RANGE)[LONG-RANGE]:(    0.1100)[    0.0000]

 HYBRID EXCHANGE - PERCENTAGE OF FOCK EXCHANGE    35.0000

 SPIN POLARIZED DFT SELECTED

 DIRECT LATTICE VECTOR COMPONENTS (ANGSTROM)
        12.21040    0.00492    0.00000
         0.00000    6.08084    0.00000
        -2.84446    0.00849   11.27900

 LATTICE PARAMETERS  (ANGSTROM AND DEGREES) - PRIMITIVE CELL
       A          B          C         ALPHA      BETA     GAMMA        VOLUME
   12.21040    6.08084   11.63215     89.9582  104.1543   89.9769     837.45990
 *******************************************************************************
 N. OF ATOMS PER CELL        80 COULOMB OVERLAP TOL          (T1) 10**   -7
 NUMBER OF SHELLS           496 COULOMB PENETRATION TOL      (T2) 10**   -7
 NUMBER OF AO              1856 EXCHANGE OVERLAP TOL         (T3) 10**   -7
 N. OF ELECTRONS PER CELL  1368 EXCHANGE PSEUDO OVP (F(G))   (T4) 10**   -7
 CORE ELECTRONS PER CELL    990 EXCHANGE PSEUDO OVP (P(G))   (T5) 10**  -14
 N. OF SYMMETRY OPERATORS     1 POLE ORDER IN MONO ZONE                   4
 *******************************************************************************
   ATOM N.AT.  SHELL    X(A)      Y(A)      Z(A)      EXAD       N.ELECT.
 *******************************************************************************
    1   31 GA    8    -4.686     1.517    -1.147   6.695E-01      29.311
    2   31 GA    8    -3.272     1.512    -6.798   6.695E-01      29.301
    3   31 GA    8    -4.690    -1.522    -1.152   6.695E-01      29.311
    4   31 GA    8    -3.280    -1.532    -6.796   6.695E-01      29.300
    5   31 GA    8     1.419     0.002    -1.152   6.695E-01      29.302
    6   31 GA    8    -0.095    -0.142     4.466   6.695E-01      29.345
    7   31 GA    8     1.419     3.040    -1.154   6.695E-01      29.308
    8   31 GA    8    -0.126    -2.834     4.454   6.695E-01      29.306
    9   31 GA    8     4.695     1.522     1.161   6.695E-01      29.303
   10   31 GA    8     3.272     1.527     6.789   6.695E-01      29.308
   11   31 GA    8     4.700    -1.518     1.156   6.695E-01      29.301
   12   31 GA    8     3.272    -1.512     6.793   6.695E-01      29.304
   13   31 GA    8    -1.397     0.002     1.144   6.695E-01      29.503
   14   31 GA    8     0.014    -0.003    -4.474   6.695E-01      29.305
   15   31 GA    8    -1.402     3.039     1.144   6.695E-01      29.298
   16   31 GA    8     0.016    -3.038    -4.476   6.695E-01      29.300
   17   31 GA    8    -4.607    -0.006     1.793   6.695E-01      29.302
   18   31 GA    8    -3.198    -0.008    -3.860   6.695E-01      29.303
   19   31 GA    8    -4.617    -3.036     1.784   6.695E-01      29.303
   20   31 GA    8    -3.199     3.035    -3.862   6.695E-01      29.304
   21   31 GA    8     1.474     1.524     1.784   6.695E-01      29.300
   22   31 GA    8     2.899     1.521    -3.890   6.695E-01      29.295
   23   31 GA    8     1.491    -1.523     1.792   6.695E-01      29.305
   24   31 GA    8     2.910    -1.522    -3.855   6.695E-01      29.306
   25   31 GA    8     4.625     0.003    -1.784   6.695E-01      29.302
   26   31 GA    8     3.189     0.010     3.867   6.695E-01      29.304
   27   31 GA    8     4.625     3.040    -1.783   6.695E-01      29.303
   28   31 GA    8     3.183    -3.036     3.870   6.695E-01      29.303
   29   31 GA    8    -1.482     1.520    -1.781   6.695E-01      29.402
   30   31 GA    8    -2.864     1.524     3.865   6.695E-01      29.294
   31   31 GA    8    -1.482    -1.519    -1.781   6.695E-01      29.399
   32   31 GA    8    -2.891    -1.507     3.846   6.695E-01      29.330
   33    8 O     5    -5.676    -0.001    -1.443   4.510E-01       9.095
   34    8 O     5     5.108     0.005     4.187   4.510E-01       9.101
   35    8 O     5    -5.675     3.036    -1.442   4.510E-01       9.103
   36    8 O     5     5.103    -3.037     4.195   4.510E-01       9.101
   37    8 O     5     0.425    -1.519    -1.445   4.510E-01       9.104
   38    8 O     5    -1.074    -1.629     4.171   4.510E-01       9.027
   39    8 O     5     0.426     1.521    -1.448   4.510E-01       9.102
   40    8 O     5    -0.986     1.534     4.203   4.510E-01       9.105
   41    8 O     5     5.693     0.002     1.459   4.510E-01       9.102
   42    8 O     5    -5.102    -0.005    -4.193   4.510E-01       9.102
   43    8 O     5     5.690    -3.039     1.454   4.510E-01       9.101
   44    8 O     5    -5.103     3.034    -4.191   4.510E-01       9.102
   45    8 O     5    -0.426     1.521     1.432   4.510E-01       9.095
   46    8 O     5     0.990     1.520    -4.188   4.510E-01       9.096
   47    8 O     5    -0.432    -1.520     1.484   4.510E-01       9.121
   48    8 O     5     0.996    -1.521    -4.196   4.510E-01       9.110
   49    8 O     5    -4.234    -1.522     0.630   4.510E-01       9.124
   50    8 O     5    -2.815    -1.527    -5.018   4.510E-01       9.117
   51    8 O     5    -4.224     1.518     0.639   4.510E-01       9.128
   52    8 O     5    -2.810     1.513    -5.019   4.510E-01       9.119
   53    8 O     5     1.864     0.001     0.626   4.510E-01       9.119
   54    8 O     5     3.245    -0.020    -5.024   4.510E-01       9.110
   55    8 O     5     1.865    -3.040     0.624   4.510E-01       9.119
   56    8 O     5     3.242    -3.018    -5.032   4.510E-01       9.119
   57    8 O     5     4.253     1.521    -0.625   4.510E-01       9.116
   58    8 O     5     2.824     1.525     5.016   4.510E-01       9.098
   59    8 O     5     4.251    -1.518    -0.625   4.510E-01       9.118
   60    8 O     5     2.826    -1.512     5.017   4.510E-01       9.120
   61    0 XX    5    -1.862    -0.002    -0.627   4.510E-01       0.679
   62    8 O     5    -3.250    -0.008     5.011   4.510E-01       9.119
   63    8 O     5    -1.861    -3.037    -0.628   4.510E-01       9.114
   64    8 O     5    -3.239    -3.015     5.008   4.510E-01       9.117
   65    8 O     5    -3.367     1.518    -2.473   4.510E-01       9.180
   66    8 O     5    -4.756     1.528     3.173   4.510E-01       9.177
   67    8 O     5    -3.366    -1.523    -2.475   4.510E-01       9.181
   68    8 O     5    -4.798    -1.538     3.168   4.510E-01       9.176
   69    8 O     5     2.743     0.008    -2.474   4.510E-01       9.180
   70    8 O     5     1.299     0.010     3.167   4.510E-01       9.169
   71    8 O     5     2.742     3.034    -2.476   4.510E-01       9.177
   72    8 O     5     1.295    -3.034     3.167   4.510E-01       9.175
   73    8 O     5     3.357     1.526     2.479   4.510E-01       9.179
   74    8 O     5     4.782     1.517    -3.177   4.510E-01       9.178
   75    8 O     5     3.377    -1.518     2.475   4.510E-01       9.178
   76    8 O     5     4.797    -1.516    -3.159   4.510E-01       9.180
   77    8 O     5    -2.697    -0.027     2.487   4.510E-01       9.182
   78    8 O     5    -1.314    -0.009    -3.164   4.510E-01       9.163
   79    8 O     5    -2.723    -3.019     2.475   4.510E-01       9.176
   80    8 O     5    -1.316    -3.038    -3.169   4.510E-01       9.185
 *******************************************************************************
 DE(K)                   0.000E+00  ENERGY LEVEL SHIFTING        0.00000
 TOTAL ENERGY -6.5122932739598E+04  CONVERGENCE ON ENER       -1.913E-06
 KIN. ENERGY   6.5006462462005E+04  VIR. COEFF.           1.01368554E+00
 N. OF SCF CYCLES               15  FERMI ENERGY              -0.909E-01
 WEIGHT OF F(I) IN F(I+1)      30
 SHRINK. FACT.(MONKH.)     6  6  6  SHRINKING FACTOR(GILAT NET)        6
 NUMBER OF K POINTS IN THE IBZ 112  CELL VOLUME (A.U.)       5651.459594
 *******************************************************************************

 GCALCO - MAX INDICES DIRECT LATTICE VECTOR    11    23    12
 NO.OF VECTORS CREATED 6999 STARS 3500 RMAX   211.58697 BOHR
 TTTTTTTTTTTTTTTTTTTTTTTTTTTTTT gordsh1     TELAPSE        0.24 TCPU        0.19

 MATRIX SIZE: P(G) 4197794, F(G)  695440, P(G) IRR 2106017, F(G) IRR  699344
 MAX G-VECTOR INDEX FOR 1- AND 2-ELECTRON INTEGRALS  71


 CAPPA:IS1  6;IS2  6;IS3  6; K PTS MONK NET 112; SYMMOPS:K SPACE   2;G SPACE   1

 CHCHCHCHCHCHCHCHCHCHCHCHCHCHCHCHCHCHCHCHCHCHCHCHCHCHCHCHCHCHCHCHCHCHCHCHCHCH

 ELECTRON CHARGE (AND SPIN) DENSITY - DERIVATIVES UP TO ORDER 0

 CHCHCHCHCHCHCHCHCHCHCHCHCHCHCHCHCHCHCHCHCHCHCHCHCHCHCHCHCHCHCHCHCHCHCHCHCHCH

 CO-ORDINATES IN ANGSTROM
 REDEFINITION OF THE WINDOW AS A RECTANGULAR WINDOW
 MARGINS (BOHR):   2.8346   2.8346 ALONG B-C,   2.8346   2.8346 ALONG A-B

                        COORDINATES OF THE 3 POINTS (BOHR):
              A)   17.463    0.000  -10.585 POINT INDICES (  1,  1)
              B)    7.677    0.000    9.773 POINT INDICES (NPY,  1)
              C)  -17.463    0.000   10.585 POINT INDICES (NPY,NPX)

 N. OF POINTS ALONG THE A-B SEGMENT (NPY) 1500
 N. OF POINTS ALONG THE B-C SEGMENT (NPX) 1670
 N. OF POINTS IN THE GRID :              *****
 COSINE OF THE ANGLE A-B-C             -0.4621
 N. OF ELEMENTS IN THE SYMMETRY SUB-GROUP    1
 N. OF POINTS IN THE IRREDUCIBLE ZONE :  *****


    ALPHA+BETA ELECTRONS DENSITY - VALMIN  3.5679E-03 VALMAX  1.4107E+04

***** DATA WRITTEN ON UNIT 25 WITH THE FOLLOWING HEADER
-%-1MAPN 1500 1670 0.15069E-01 0.15071E-01-0.46215E+00


    ALPHA-BETA ELECTRONS DENSITY - VALMIN -4.9617E-04 VALMAX  5.4032E-03

***** DATA WRITTEN ON UNIT 25 WITH THE FOLLOWING HEADER
-%-1MAPN 1500 1670 0.15069E-01 0.15071E-01-0.46215E+00
 TTTTTTTTTTTTTTTTTTTTTTTTTTTTTT ECHG        TELAPSE    29300.99 TCPU    29004.73
 ENDPROP   
 TTTTTTTTTTTTTTTTTTTTTTTTTTTTTT END         TELAPSE    29300.99 TCPU    29004.73
 EEEEEEEEEE TERMINATION  DATE 13 09 2025 TIME 19:31:48.3
NODE    0 CPU TIME =     29004.735
NODE    1 CPU TIME =     29004.228
NODE    2 CPU TIME =     29003.687
NODE    3 CPU TIME =     29004.296
NODE    4 CPU TIME =     29003.879
NODE    5 CPU TIME =     29002.899
NODE    6 CPU TIME =     29005.105
NODE    7 CPU TIME =     29004.358
NODE    8 CPU TIME =     29002.339
NODE    9 CPU TIME =     29003.488
NODE   10 CPU TIME =     29002.607
NODE   11 CPU TIME =     29003.709
NODE   12 CPU TIME =     29003.424
NODE   13 CPU TIME =     29002.767
NODE   14 CPU TIME =     29003.597
NODE   15 CPU TIME =     29004.286
NODE   16 CPU TIME =     29005.077
NODE   17 CPU TIME =     29003.367
NODE   18 CPU TIME =     29004.864
NODE   19 CPU TIME =     29003.861
NODE   20 CPU TIME =     29002.329
NODE   21 CPU TIME =     29002.631
NODE   22 CPU TIME =     29003.737
NODE   23 CPU TIME =     29003.085
    TOTAL CPU TIME =    696088.354
--------------------------------------------------------------------------
A system call failed during shared memory initialization that should
not have.  It is likely that your MPI job will now either abort or
experience performance degradation.

  Local host:  FINE.local
  System call: unlink(2) /var/folders/38/3l0985dx7tldpkjzyb91mmj80000gn/T//ompi.FINE.501/pid.11462/1/vader_segment.FINE.501.bc920001.20
  Error:       No such file or directory (errno 2)
--------------------------------------------------------------------------
Note: The following floating-point exceptions are signalling: IEEE_UNDERFLOW_FLAG
Note: The following floating-point exceptions are signalling: IEEE_UNDERFLOW_FLAG
Note: The following floating-point exceptions are signalling: IEEE_UNDERFLOW_FLAG
Note: The following floating-point exceptions are signalling: IEEE_UNDERFLOW_FLAG
Note: The following floating-point exceptions are signalling: IEEE_UNDERFLOW_FLAG
Note: The following floating-point exceptions are signalling: IEEE_UNDERFLOW_FLAG
Note: The following floating-point exceptions are signalling: IEEE_UNDERFLOW_FLAG
Note: The following floating-point exceptions are signalling: IEEE_UNDERFLOW_FLAG
Note: The following floating-point exceptions are signalling: IEEE_UNDERFLOW_FLAG
Note: The following floating-point exceptions are signalling: IEEE_UNDERFLOW_FLAG
Note: The following floating-point exceptions are signalling: IEEE_UNDERFLOW_FLAG
Note: The following floating-point exceptions are signalling: IEEE_UNDERFLOW_FLAG
Note: The following floating-point exceptions are signalling: IEEE_UNDERFLOW_FLAG
Note: The following floating-point exceptions are signalling: IEEE_UNDERFLOW_FLAG
Note: The following floating-point exceptions are signalling: IEEE_UNDERFLOW_FLAG
Note: The following floating-point exceptions are signalling: IEEE_UNDERFLOW_FLAG
Note: The following floating-point exceptions are signalling: IEEE_UNDERFLOW_FLAG
Note: The following floating-point exceptions are signalling: IEEE_UNDERFLOW_FLAG
Note: The following floating-point exceptions are signalling: IEEE_UNDERFLOW_FLAG
Note: The following floating-point exceptions are signalling: IEEE_UNDERFLOW_FLAG
Note: The following floating-point exceptions are signalling: IEEE_UNDERFLOW_FLAG
Note: The following floating-point exceptions are signalling: IEEE_UNDERFLOW_FLAG
Note: The following floating-point exceptions are signalling: IEEE_UNDERFLOW_FLAG
Note: The following floating-point exceptions are signalling: IEEE_UNDERFLOW_FLAG
[FINE.local:11462] 2 more processes have sent help message help-opal-shmem-mmap.txt / sys call fail
[FINE.local:11462] Set MCA parameter "orte_base_help_aggregate" to 0 to see all help / error messages
sábado, 13 de septiembre de 2025, 19:31:48 CEST
Contents of temporary directory:
total 4570960
-rw-r--r--@ 1 fine1  staff          0 13 sep 11:23 fort.10.pe00
-rw-r--r--@ 1 fine1  staff          0 13 sep 11:23 fort.10.pe01
-rw-r--r--@ 1 fine1  staff          0 13 sep 11:23 fort.10.pe02
-rw-r--r--@ 1 fine1  staff          0 13 sep 11:23 fort.10.pe03
-rw-r--r--@ 1 fine1  staff          0 13 sep 11:23 fort.10.pe04
-rw-r--r--@ 1 fine1  staff          0 13 sep 11:23 fort.10.pe05
-rw-r--r--@ 1 fine1  staff          0 13 sep 11:23 fort.10.pe06
-rw-r--r--@ 1 fine1  staff          0 13 sep 11:23 fort.10.pe07
-rw-r--r--@ 1 fine1  staff          0 13 sep 11:23 fort.10.pe08
-rw-r--r--@ 1 fine1  staff          0 13 sep 11:23 fort.10.pe09
-rw-r--r--@ 1 fine1  staff          0 13 sep 11:23 fort.10.pe10
-rw-r--r--@ 1 fine1  staff          0 13 sep 11:23 fort.10.pe11
-rw-r--r--@ 1 fine1  staff          0 13 sep 11:23 fort.10.pe12
-rw-r--r--@ 1 fine1  staff          0 13 sep 11:23 fort.10.pe13
-rw-r--r--@ 1 fine1  staff          0 13 sep 11:23 fort.10.pe14
-rw-r--r--@ 1 fine1  staff          0 13 sep 11:23 fort.10.pe15
-rw-r--r--@ 1 fine1  staff          0 13 sep 11:23 fort.10.pe16
-rw-r--r--@ 1 fine1  staff          0 13 sep 11:23 fort.10.pe17
-rw-r--r--@ 1 fine1  staff          0 13 sep 11:23 fort.10.pe18
-rw-r--r--@ 1 fine1  staff          0 13 sep 11:23 fort.10.pe19
-rw-r--r--@ 1 fine1  staff          0 13 sep 11:23 fort.10.pe20
-rw-r--r--@ 1 fine1  staff          0 13 sep 11:23 fort.10.pe21
-rw-r--r--@ 1 fine1  staff          0 13 sep 11:23 fort.10.pe22
-rw-r--r--@ 1 fine1  staff          0 13 sep 11:23 fort.10.pe23
-rw-r--r--@ 1 fine1  staff   11127056 13 sep 19:31 fort.11.pe00
-rw-r--r--@ 1 fine1  staff   11127056 13 sep 19:31 fort.11.pe01
-rw-r--r--@ 1 fine1  staff   11127056 13 sep 19:31 fort.11.pe02
-rw-r--r--@ 1 fine1  staff   11127056 13 sep 19:31 fort.11.pe03
-rw-r--r--@ 1 fine1  staff   11127056 13 sep 19:31 fort.11.pe04
-rw-r--r--@ 1 fine1  staff   11127056 13 sep 19:31 fort.11.pe05
-rw-r--r--@ 1 fine1  staff   11127056 13 sep 19:31 fort.11.pe06
-rw-r--r--@ 1 fine1  staff   11127056 13 sep 19:31 fort.11.pe07
-rw-r--r--@ 1 fine1  staff   11127056 13 sep 19:31 fort.11.pe08
-rw-r--r--@ 1 fine1  staff   11127056 13 sep 19:31 fort.11.pe09
-rw-r--r--@ 1 fine1  staff   11127056 13 sep 19:31 fort.11.pe10
-rw-r--r--@ 1 fine1  staff   11127056 13 sep 19:31 fort.11.pe11
-rw-r--r--@ 1 fine1  staff   11127056 13 sep 19:31 fort.11.pe12
-rw-r--r--@ 1 fine1  staff   11127056 13 sep 19:31 fort.11.pe13
-rw-r--r--@ 1 fine1  staff   11127056 13 sep 19:31 fort.11.pe14
-rw-r--r--@ 1 fine1  staff   11127056 13 sep 19:31 fort.11.pe15
-rw-r--r--@ 1 fine1  staff   11127056 13 sep 19:31 fort.11.pe16
-rw-r--r--@ 1 fine1  staff   11127056 13 sep 19:31 fort.11.pe17
-rw-r--r--@ 1 fine1  staff   11127056 13 sep 19:31 fort.11.pe18
-rw-r--r--@ 1 fine1  staff   11127056 13 sep 19:31 fort.11.pe19
-rw-r--r--@ 1 fine1  staff   11127056 13 sep 19:31 fort.11.pe20
-rw-r--r--@ 1 fine1  staff   11127056 13 sep 19:31 fort.11.pe21
-rw-r--r--@ 1 fine1  staff   11127056 13 sep 19:31 fort.11.pe22
-rw-r--r--@ 1 fine1  staff   11127056 13 sep 19:31 fort.11.pe23
-rw-r--r--@ 1 fine1  staff   67164712 13 sep 11:23 fort.13.pe00
-rw-r--r--@ 1 fine1  staff   67164712 13 sep 11:23 fort.13.pe01
-rw-r--r--@ 1 fine1  staff   67164712 13 sep 11:23 fort.13.pe02
-rw-r--r--@ 1 fine1  staff   67164712 13 sep 11:23 fort.13.pe03
-rw-r--r--@ 1 fine1  staff   67164712 13 sep 11:23 fort.13.pe04
-rw-r--r--@ 1 fine1  staff   67164712 13 sep 11:23 fort.13.pe05
-rw-r--r--@ 1 fine1  staff   67164712 13 sep 11:23 fort.13.pe06
-rw-r--r--@ 1 fine1  staff   67164712 13 sep 11:23 fort.13.pe07
-rw-r--r--@ 1 fine1  staff   67164712 13 sep 11:23 fort.13.pe08
-rw-r--r--@ 1 fine1  staff   67164712 13 sep 11:23 fort.13.pe09
-rw-r--r--@ 1 fine1  staff   67164712 13 sep 11:23 fort.13.pe10
-rw-r--r--@ 1 fine1  staff   67164712 13 sep 11:23 fort.13.pe11
-rw-r--r--@ 1 fine1  staff   67164712 13 sep 11:23 fort.13.pe12
-rw-r--r--@ 1 fine1  staff   67164712 13 sep 11:23 fort.13.pe13
-rw-r--r--@ 1 fine1  staff   67164712 13 sep 11:23 fort.13.pe14
-rw-r--r--@ 1 fine1  staff   67164712 13 sep 11:23 fort.13.pe15
-rw-r--r--@ 1 fine1  staff   67164712 13 sep 11:23 fort.13.pe16
-rw-r--r--@ 1 fine1  staff   67164712 13 sep 11:23 fort.13.pe17
-rw-r--r--@ 1 fine1  staff   67164712 13 sep 11:23 fort.13.pe18
-rw-r--r--@ 1 fine1  staff   67164712 13 sep 11:23 fort.13.pe19
-rw-r--r--@ 1 fine1  staff   67164712 13 sep 11:23 fort.13.pe20
-rw-r--r--@ 1 fine1  staff   67164712 13 sep 11:23 fort.13.pe21
-rw-r--r--@ 1 fine1  staff   67164712 13 sep 11:23 fort.13.pe22
-rw-r--r--@ 1 fine1  staff   67164712 13 sep 11:23 fort.13.pe23
-rw-r--r--@ 1 fine1  staff          0 13 sep 11:23 fort.15.pe00
-rw-r--r--@ 1 fine1  staff          0 13 sep 11:23 fort.15.pe01
-rw-r--r--@ 1 fine1  staff          0 13 sep 11:23 fort.15.pe02
-rw-r--r--@ 1 fine1  staff          0 13 sep 11:23 fort.15.pe03
-rw-r--r--@ 1 fine1  staff          0 13 sep 11:23 fort.15.pe04
-rw-r--r--@ 1 fine1  staff          0 13 sep 11:23 fort.15.pe05
-rw-r--r--@ 1 fine1  staff          0 13 sep 11:23 fort.15.pe06
-rw-r--r--@ 1 fine1  staff          0 13 sep 11:23 fort.15.pe07
-rw-r--r--@ 1 fine1  staff          0 13 sep 11:23 fort.15.pe08
-rw-r--r--@ 1 fine1  staff          0 13 sep 11:23 fort.15.pe09
-rw-r--r--@ 1 fine1  staff          0 13 sep 11:23 fort.15.pe10
-rw-r--r--@ 1 fine1  staff          0 13 sep 11:23 fort.15.pe11
-rw-r--r--@ 1 fine1  staff          0 13 sep 11:23 fort.15.pe12
-rw-r--r--@ 1 fine1  staff          0 13 sep 11:23 fort.15.pe13
-rw-r--r--@ 1 fine1  staff          0 13 sep 11:23 fort.15.pe14
-rw-r--r--@ 1 fine1  staff          0 13 sep 11:23 fort.15.pe15
-rw-r--r--@ 1 fine1  staff          0 13 sep 11:23 fort.15.pe16
-rw-r--r--@ 1 fine1  staff          0 13 sep 11:23 fort.15.pe17
-rw-r--r--@ 1 fine1  staff          0 13 sep 11:23 fort.15.pe18
-rw-r--r--@ 1 fine1  staff          0 13 sep 11:23 fort.15.pe19
-rw-r--r--@ 1 fine1  staff          0 13 sep 11:23 fort.15.pe20
-rw-r--r--@ 1 fine1  staff          0 13 sep 11:23 fort.15.pe21
-rw-r--r--@ 1 fine1  staff          0 13 sep 11:23 fort.15.pe22
-rw-r--r--@ 1 fine1  staff          0 13 sep 11:23 fort.15.pe23
-rw-r--r--@ 1 fine1  staff   60966600 13 sep 19:31 fort.25
-rw-r--r--@ 1 fine1  staff          0 13 sep 11:23 fort.26.pe00
-rw-r--r--@ 1 fine1  staff          0 13 sep 11:23 fort.26.pe01
-rw-r--r--@ 1 fine1  staff          0 13 sep 11:23 fort.26.pe02
-rw-r--r--@ 1 fine1  staff          0 13 sep 11:23 fort.26.pe03
-rw-r--r--@ 1 fine1  staff          0 13 sep 11:23 fort.26.pe04
-rw-r--r--@ 1 fine1  staff          0 13 sep 11:23 fort.26.pe05
-rw-r--r--@ 1 fine1  staff          0 13 sep 11:23 fort.26.pe06
-rw-r--r--@ 1 fine1  staff          0 13 sep 11:23 fort.26.pe07
-rw-r--r--@ 1 fine1  staff          0 13 sep 11:23 fort.26.pe08
-rw-r--r--@ 1 fine1  staff          0 13 sep 11:23 fort.26.pe09
-rw-r--r--@ 1 fine1  staff          0 13 sep 11:23 fort.26.pe10
-rw-r--r--@ 1 fine1  staff          0 13 sep 11:23 fort.26.pe11
-rw-r--r--@ 1 fine1  staff          0 13 sep 11:23 fort.26.pe12
-rw-r--r--@ 1 fine1  staff          0 13 sep 11:23 fort.26.pe13
-rw-r--r--@ 1 fine1  staff          0 13 sep 11:23 fort.26.pe14
-rw-r--r--@ 1 fine1  staff          0 13 sep 11:23 fort.26.pe15
-rw-r--r--@ 1 fine1  staff          0 13 sep 11:23 fort.26.pe16
-rw-r--r--@ 1 fine1  staff          0 13 sep 11:23 fort.26.pe17
-rw-r--r--@ 1 fine1  staff          0 13 sep 11:23 fort.26.pe18
-rw-r--r--@ 1 fine1  staff          0 13 sep 11:23 fort.26.pe19
-rw-r--r--@ 1 fine1  staff          0 13 sep 11:23 fort.26.pe20
-rw-r--r--@ 1 fine1  staff          0 13 sep 11:23 fort.26.pe21
-rw-r--r--@ 1 fine1  staff          0 13 sep 11:23 fort.26.pe22
-rw-r--r--@ 1 fine1  staff          0 13 sep 11:23 fort.26.pe23
-rw-r--r--@ 1 fine1  staff    5563528 13 sep 19:31 fort.3.pe00
-rw-r--r--@ 1 fine1  staff    5563528 13 sep 19:31 fort.3.pe01
-rw-r--r--@ 1 fine1  staff    5563528 13 sep 19:31 fort.3.pe02
-rw-r--r--@ 1 fine1  staff    5563528 13 sep 19:31 fort.3.pe03
-rw-r--r--@ 1 fine1  staff    5563528 13 sep 19:31 fort.3.pe04
-rw-r--r--@ 1 fine1  staff    5563528 13 sep 19:31 fort.3.pe05
-rw-r--r--@ 1 fine1  staff    5563528 13 sep 19:31 fort.3.pe06
-rw-r--r--@ 1 fine1  staff    5563528 13 sep 19:31 fort.3.pe07
-rw-r--r--@ 1 fine1  staff    5563528 13 sep 19:31 fort.3.pe08
-rw-r--r--@ 1 fine1  staff    5563528 13 sep 19:31 fort.3.pe09
-rw-r--r--@ 1 fine1  staff    5563528 13 sep 19:31 fort.3.pe10
-rw-r--r--@ 1 fine1  staff    5563528 13 sep 19:31 fort.3.pe11
-rw-r--r--@ 1 fine1  staff    5563528 13 sep 19:31 fort.3.pe12
-rw-r--r--@ 1 fine1  staff    5563528 13 sep 19:31 fort.3.pe13
-rw-r--r--@ 1 fine1  staff    5563528 13 sep 19:31 fort.3.pe14
-rw-r--r--@ 1 fine1  staff    5563528 13 sep 19:31 fort.3.pe15
-rw-r--r--@ 1 fine1  staff    5563528 13 sep 19:31 fort.3.pe16
-rw-r--r--@ 1 fine1  staff    5563528 13 sep 19:31 fort.3.pe17
-rw-r--r--@ 1 fine1  staff    5563528 13 sep 19:31 fort.3.pe18
-rw-r--r--@ 1 fine1  staff    5563528 13 sep 19:31 fort.3.pe19
-rw-r--r--@ 1 fine1  staff    5563528 13 sep 19:31 fort.3.pe20
-rw-r--r--@ 1 fine1  staff    5563528 13 sep 19:31 fort.3.pe21
-rw-r--r--@ 1 fine1  staff    5563528 13 sep 19:31 fort.3.pe22
-rw-r--r--@ 1 fine1  staff    5563528 13 sep 19:31 fort.3.pe23
-rw-r--r--@ 1 fine1  staff          0 13 sep 11:23 fort.61.pe00
-rw-r--r--@ 1 fine1  staff          0 13 sep 11:23 fort.61.pe01
-rw-r--r--@ 1 fine1  staff          0 13 sep 11:23 fort.61.pe02
-rw-r--r--@ 1 fine1  staff          0 13 sep 11:23 fort.61.pe03
-rw-r--r--@ 1 fine1  staff          0 13 sep 11:23 fort.61.pe04
-rw-r--r--@ 1 fine1  staff          0 13 sep 11:23 fort.61.pe05
-rw-r--r--@ 1 fine1  staff          0 13 sep 11:23 fort.61.pe06
-rw-r--r--@ 1 fine1  staff          0 13 sep 11:23 fort.61.pe07
-rw-r--r--@ 1 fine1  staff          0 13 sep 11:23 fort.61.pe08
-rw-r--r--@ 1 fine1  staff          0 13 sep 11:23 fort.61.pe09
-rw-r--r--@ 1 fine1  staff          0 13 sep 11:23 fort.61.pe10
-rw-r--r--@ 1 fine1  staff          0 13 sep 11:23 fort.61.pe11
-rw-r--r--@ 1 fine1  staff          0 13 sep 11:23 fort.61.pe12
-rw-r--r--@ 1 fine1  staff          0 13 sep 11:23 fort.61.pe13
-rw-r--r--@ 1 fine1  staff          0 13 sep 11:23 fort.61.pe14
-rw-r--r--@ 1 fine1  staff          0 13 sep 11:23 fort.61.pe15
-rw-r--r--@ 1 fine1  staff          0 13 sep 11:23 fort.61.pe16
-rw-r--r--@ 1 fine1  staff          0 13 sep 11:23 fort.61.pe17
-rw-r--r--@ 1 fine1  staff          0 13 sep 11:23 fort.61.pe18
-rw-r--r--@ 1 fine1  staff          0 13 sep 11:23 fort.61.pe19
-rw-r--r--@ 1 fine1  staff          0 13 sep 11:23 fort.61.pe20
-rw-r--r--@ 1 fine1  staff          0 13 sep 11:23 fort.61.pe21
-rw-r--r--@ 1 fine1  staff          0 13 sep 11:23 fort.61.pe22
-rw-r--r--@ 1 fine1  staff          0 13 sep 11:23 fort.61.pe23
-rw-r--r--@ 1 fine1  staff          0 13 sep 11:23 fort.62.pe00
-rw-r--r--@ 1 fine1  staff          0 13 sep 11:23 fort.62.pe01
-rw-r--r--@ 1 fine1  staff          0 13 sep 11:23 fort.62.pe02
-rw-r--r--@ 1 fine1  staff          0 13 sep 11:23 fort.62.pe03
-rw-r--r--@ 1 fine1  staff          0 13 sep 11:23 fort.62.pe04
-rw-r--r--@ 1 fine1  staff          0 13 sep 11:23 fort.62.pe05
-rw-r--r--@ 1 fine1  staff          0 13 sep 11:23 fort.62.pe06
-rw-r--r--@ 1 fine1  staff          0 13 sep 11:23 fort.62.pe07
-rw-r--r--@ 1 fine1  staff          0 13 sep 11:23 fort.62.pe08
-rw-r--r--@ 1 fine1  staff          0 13 sep 11:23 fort.62.pe09
-rw-r--r--@ 1 fine1  staff          0 13 sep 11:23 fort.62.pe10
-rw-r--r--@ 1 fine1  staff          0 13 sep 11:23 fort.62.pe11
-rw-r--r--@ 1 fine1  staff          0 13 sep 11:23 fort.62.pe12
-rw-r--r--@ 1 fine1  staff          0 13 sep 11:23 fort.62.pe13
-rw-r--r--@ 1 fine1  staff          0 13 sep 11:23 fort.62.pe14
-rw-r--r--@ 1 fine1  staff          0 13 sep 11:23 fort.62.pe15
-rw-r--r--@ 1 fine1  staff          0 13 sep 11:23 fort.62.pe16
-rw-r--r--@ 1 fine1  staff          0 13 sep 11:23 fort.62.pe17
-rw-r--r--@ 1 fine1  staff          0 13 sep 11:23 fort.62.pe18
-rw-r--r--@ 1 fine1  staff          0 13 sep 11:23 fort.62.pe19
-rw-r--r--@ 1 fine1  staff          0 13 sep 11:23 fort.62.pe20
-rw-r--r--@ 1 fine1  staff          0 13 sep 11:23 fort.62.pe21
-rw-r--r--@ 1 fine1  staff          0 13 sep 11:23 fort.62.pe22
-rw-r--r--@ 1 fine1  staff          0 13 sep 11:23 fort.62.pe23
-rw-r--r--@ 1 fine1  staff          0 13 sep 11:23 fort.75.pe00
-rw-r--r--@ 1 fine1  staff          0 13 sep 11:23 fort.75.pe01
-rw-r--r--@ 1 fine1  staff          0 13 sep 11:23 fort.75.pe02
-rw-r--r--@ 1 fine1  staff          0 13 sep 11:23 fort.75.pe03
-rw-r--r--@ 1 fine1  staff          0 13 sep 11:23 fort.75.pe04
-rw-r--r--@ 1 fine1  staff          0 13 sep 11:23 fort.75.pe05
-rw-r--r--@ 1 fine1  staff          0 13 sep 11:23 fort.75.pe06
-rw-r--r--@ 1 fine1  staff          0 13 sep 11:23 fort.75.pe07
-rw-r--r--@ 1 fine1  staff          0 13 sep 11:23 fort.75.pe08
-rw-r--r--@ 1 fine1  staff          0 13 sep 11:23 fort.75.pe09
-rw-r--r--@ 1 fine1  staff          0 13 sep 11:23 fort.75.pe10
-rw-r--r--@ 1 fine1  staff          0 13 sep 11:23 fort.75.pe11
-rw-r--r--@ 1 fine1  staff          0 13 sep 11:23 fort.75.pe12
-rw-r--r--@ 1 fine1  staff          0 13 sep 11:23 fort.75.pe13
-rw-r--r--@ 1 fine1  staff          0 13 sep 11:23 fort.75.pe14
-rw-r--r--@ 1 fine1  staff          0 13 sep 11:23 fort.75.pe15
-rw-r--r--@ 1 fine1  staff          0 13 sep 11:23 fort.75.pe16
-rw-r--r--@ 1 fine1  staff          0 13 sep 11:23 fort.75.pe17
-rw-r--r--@ 1 fine1  staff          0 13 sep 11:23 fort.75.pe18
-rw-r--r--@ 1 fine1  staff          0 13 sep 11:23 fort.75.pe19
-rw-r--r--@ 1 fine1  staff          0 13 sep 11:23 fort.75.pe20
-rw-r--r--@ 1 fine1  staff          0 13 sep 11:23 fort.75.pe21
-rw-r--r--@ 1 fine1  staff          0 13 sep 11:23 fort.75.pe22
-rw-r--r--@ 1 fine1  staff          0 13 sep 11:23 fort.75.pe23
-rw-r--r--@ 1 fine1  staff          0 13 sep 11:23 fort.77.pe00
-rw-r--r--@ 1 fine1  staff          0 13 sep 11:23 fort.77.pe01
-rw-r--r--@ 1 fine1  staff          0 13 sep 11:23 fort.77.pe02
-rw-r--r--@ 1 fine1  staff          0 13 sep 11:23 fort.77.pe03
-rw-r--r--@ 1 fine1  staff          0 13 sep 11:23 fort.77.pe04
-rw-r--r--@ 1 fine1  staff          0 13 sep 11:23 fort.77.pe05
-rw-r--r--@ 1 fine1  staff          0 13 sep 11:23 fort.77.pe06
-rw-r--r--@ 1 fine1  staff          0 13 sep 11:23 fort.77.pe07
-rw-r--r--@ 1 fine1  staff          0 13 sep 11:23 fort.77.pe08
-rw-r--r--@ 1 fine1  staff          0 13 sep 11:23 fort.77.pe09
-rw-r--r--@ 1 fine1  staff          0 13 sep 11:23 fort.77.pe10
-rw-r--r--@ 1 fine1  staff          0 13 sep 11:23 fort.77.pe11
-rw-r--r--@ 1 fine1  staff          0 13 sep 11:23 fort.77.pe12
-rw-r--r--@ 1 fine1  staff          0 13 sep 11:23 fort.77.pe13
-rw-r--r--@ 1 fine1  staff          0 13 sep 11:23 fort.77.pe14
-rw-r--r--@ 1 fine1  staff          0 13 sep 11:23 fort.77.pe15
-rw-r--r--@ 1 fine1  staff          0 13 sep 11:23 fort.77.pe16
-rw-r--r--@ 1 fine1  staff          0 13 sep 11:23 fort.77.pe17
-rw-r--r--@ 1 fine1  staff          0 13 sep 11:23 fort.77.pe18
-rw-r--r--@ 1 fine1  staff          0 13 sep 11:23 fort.77.pe19
-rw-r--r--@ 1 fine1  staff          0 13 sep 11:23 fort.77.pe20
-rw-r--r--@ 1 fine1  staff          0 13 sep 11:23 fort.77.pe21
-rw-r--r--@ 1 fine1  staff          0 13 sep 11:23 fort.77.pe22
-rw-r--r--@ 1 fine1  staff          0 13 sep 11:23 fort.77.pe23
-rw-r--r--@ 1 fine1  staff          0 13 sep 11:23 fort.8.pe00
-rw-r--r--@ 1 fine1  staff          0 13 sep 11:23 fort.8.pe01
-rw-r--r--@ 1 fine1  staff          0 13 sep 11:23 fort.8.pe02
-rw-r--r--@ 1 fine1  staff          0 13 sep 11:23 fort.8.pe03
-rw-r--r--@ 1 fine1  staff          0 13 sep 11:23 fort.8.pe04
-rw-r--r--@ 1 fine1  staff          0 13 sep 11:23 fort.8.pe05
-rw-r--r--@ 1 fine1  staff          0 13 sep 11:23 fort.8.pe06
-rw-r--r--@ 1 fine1  staff          0 13 sep 11:23 fort.8.pe07
-rw-r--r--@ 1 fine1  staff          0 13 sep 11:23 fort.8.pe08
-rw-r--r--@ 1 fine1  staff          0 13 sep 11:23 fort.8.pe09
-rw-r--r--@ 1 fine1  staff          0 13 sep 11:23 fort.8.pe10
-rw-r--r--@ 1 fine1  staff          0 13 sep 11:23 fort.8.pe11
-rw-r--r--@ 1 fine1  staff          0 13 sep 11:23 fort.8.pe12
-rw-r--r--@ 1 fine1  staff          0 13 sep 11:23 fort.8.pe13
-rw-r--r--@ 1 fine1  staff          0 13 sep 11:23 fort.8.pe14
-rw-r--r--@ 1 fine1  staff          0 13 sep 11:23 fort.8.pe15
-rw-r--r--@ 1 fine1  staff          0 13 sep 11:23 fort.8.pe16
-rw-r--r--@ 1 fine1  staff          0 13 sep 11:23 fort.8.pe17
-rw-r--r--@ 1 fine1  staff          0 13 sep 11:23 fort.8.pe18
-rw-r--r--@ 1 fine1  staff          0 13 sep 11:23 fort.8.pe19
-rw-r--r--@ 1 fine1  staff          0 13 sep 11:23 fort.8.pe20
-rw-r--r--@ 1 fine1  staff          0 13 sep 11:23 fort.8.pe21
-rw-r--r--@ 1 fine1  staff          0 13 sep 11:23 fort.8.pe22
-rw-r--r--@ 1 fine1  staff          0 13 sep 11:23 fort.8.pe23
-rw-r--r--@ 1 fine1  staff   49614300 13 sep 11:23 fort.9
-rw-r--r--  1 fine1  staff  131196048 13 sep 11:23 fort.98
-rw-r--r--@ 1 fine1  staff         97 13 sep 11:23 INPUT
-rwxr-xr-x  1 fine1  staff   84893208 13 sep 11:23 Pproperties
file fort.98 saved as /Users/fine1/Ga2O3Paper/Ga2O3_1x2x2_O_1_VAC/Ga2O3_Ovac_1_SCF_ECHG.f98
file fort.25 saved as /Users/fine1/Ga2O3Paper/Ga2O3_1x2x2_O_1_VAC/Ga2O3_Ovac_1_SCF_ECHG.f25
removing temporary directories /Users/fine1/tmp/tmp_p11413_fine1 from each node
